
     Program PWSCF v.7.2 starts on  8May2023 at 19:51:55 

     This program is part of the open-source Quantum ESPRESSO suite
     for quantum simulation of materials; please cite
         "P. Giannozzi et al., J. Phys.:Condens. Matter 21 395502 (2009);
         "P. Giannozzi et al., J. Phys.:Condens. Matter 29 465901 (2017);
         "P. Giannozzi et al., J. Chem. Phys. 152 154105 (2020);
          URL http://www.quantum-espresso.org", 
     in publications or presentations arising from this work. More details at
     http://www.quantum-espresso.org/quote

     Parallel version (MPI), running on    20 processors

     MPI processes distributed on     1 nodes
     1921 MiB available memory on the printing compute node when the environment starts

     Reading input from ./DFTData/AuIn2/relax/Relax_V946.86_0.in
Warning: card &CELL ignored
Warning: card / ignored

     Current dimensions of program PWSCF are:
     Max number of different atomic species (ntypx) = 10
     Max number of k-points (npk) =  40000
     Max angular momentum in pseudopotentials (lmaxx) =  4
     file In.pbe-dn-rrkjus_psl.1.0.0.UPF: wavefunction(s)  5S 4D renormalized

     R & G space division:  proc/nbgrp/npool/nimage =      20
     Subspace diagonalization in iterative solution of the eigenvalue problem:
     a serial algorithm will be used


     Parallelization info
     --------------------
     sticks:   dense  smooth     PW     G-vecs:    dense   smooth      PW
     Min         180     180     52                 6396     6396    1019
     Max         181     181     53                 6398     6398    1022
     Sum        3609    3609   1059               127939   127939   20423

     Using Slab Decomposition



     bravais-lattice index     =            7
     lattice parameter (alat)  =      13.2489  a.u.
     unit-cell volume          =     946.8577 (a.u.)^3
     number of atoms/cell      =            6
     number of atomic types    =            2
     number of electrons       =        74.00
     number of Kohn-Sham states=           37
     kinetic-energy cutoff     =     100.0000  Ry
     charge density cutoff     =     400.0000  Ry
     scf convergence threshold =      1.0E-06
     mixing beta               =       0.7000
     number of iterations used =            8  plain     mixing
     energy convergence thresh.=      1.0E-04
     force convergence thresh. =      1.0E-02
     Exchange-correlation= PBE
                           (   1   4   3   4   0   0   0)
     nstep                     =           50


     celldm(1)=  13.248884  celldm(2)=   0.000000  celldm(3)=   0.814286
     celldm(4)=   0.000000  celldm(5)=   0.000000  celldm(6)=   0.000000

     crystal axes: (cart. coord. in units of alat)
               a(1) = (   0.500000  -0.500000   0.407143 )  
               a(2) = (   0.500000   0.500000   0.407143 )  
               a(3) = (  -0.500000  -0.500000   0.407143 )  

     reciprocal axes: (cart. coord. in units 2 pi/alat)
               b(1) = (  1.000000 -1.000000  0.000000 )  
               b(2) = (  0.000000  1.000000  1.228070 )  
               b(3) = ( -1.000000  0.000000  1.228070 )  


     PseudoPot. # 1 for Au read from file:
     ./pseudos/Au.pbe-n-rrkjus_psl.1.0.0.UPF
     MD5 check sum: d7e77ba19504afed2c9b41c931dde4f0
     Pseudo is Ultrasoft + core correction, Zval = 11.0
     Generated using &quot;atomic&quot; code by A. Dal Corso  v.6.3
     Using radial grid of 1279 points,  6 beta functions with: 
                l(1) =   0
                l(2) =   0
                l(3) =   1
                l(4) =   1
                l(5) =   2
                l(6) =   2
     Q(r) pseudized with 0 coefficients 


     PseudoPot. # 2 for In read from file:
     ./pseudos/In.pbe-dn-rrkjus_psl.1.0.0.UPF
     MD5 check sum: 7267d4f9f57825930b619e54710f1f3b
     Pseudo is Ultrasoft + core correction, Zval = 13.0
     Generated using &quot;atomic&quot; code by A. Dal Corso  v.6.3
     Using radial grid of 1241 points,  6 beta functions with: 
                l(1) =   0
                l(2) =   0
                l(3) =   1
                l(4) =   1
                l(5) =   2
                l(6) =   2
     Q(r) pseudized with 0 coefficients 


     atomic species   valence    mass     pseudopotential
        Au            11.00   196.96660     Au( 1.00)
        In            13.00   114.81800     In( 1.00)

     16 Sym. Ops., with inversion, found ( 8 have fractional translation)



   Cartesian axes

     site n.     atom                  positions (alat units)
         1           Au  tau(   1) = (   0.0000000   0.0000000   0.2035714  )
         2           Au  tau(   2) = (   0.0000000   0.0000000  -0.2035714  )
         3           In  tau(   3) = (   0.1488810   0.6488810   0.0000000  )
         4           In  tau(   4) = (  -0.1488810   0.3511190   0.0000000  )
         5           In  tau(   5) = (   0.3511190   0.1488810   0.0000000  )
         6           In  tau(   6) = (   0.6488810  -0.1488810  -0.0000000  )

     number of k points=   102

     Number of k-points >= 100: set verbosity='high' to print them.

     Dense  grid:   127939 G-vectors     FFT dimensions: (  72,  72,  72)

     Estimated max dynamical RAM per process >      74.47 MB

     Estimated total dynamical RAM >       1.45 GB

     Initial potential from superposition of free atoms

     starting charge      73.9849, renormalised to      74.0000
     Starting wfcs are   54 randomized atomic wfcs

     total cpu time spent up to now is       43.2 secs

     Self-consistent Calculation

     iteration #  1     ecut=   100.00 Ry     beta= 0.70
     Davidson diagonalization with overlap
     ethr =  1.00E-02,  avg # of iterations =  2.0

     Threshold (ethr) on eigenvalues was too large:
     Diagonalizing with lowered threshold

     Davidson diagonalization with overlap
     ethr =  3.16E-04,  avg # of iterations =  3.8

     total cpu time spent up to now is      208.0 secs

     total energy              =    -731.68960892 Ry
     estimated scf accuracy    <       0.30173076 Ry

     iteration #  2     ecut=   100.00 Ry     beta= 0.70
     Davidson diagonalization with overlap
     ethr =  4.08E-04,  avg # of iterations =  6.3

     total cpu time spent up to now is      322.9 secs

     total energy              =    -731.74372357 Ry
     estimated scf accuracy    <       0.47183306 Ry

     iteration #  3     ecut=   100.00 Ry     beta= 0.70
     Davidson diagonalization with overlap
     ethr =  4.08E-04,  avg # of iterations =  4.7

     total cpu time spent up to now is      414.7 secs

     total energy              =    -731.82240324 Ry
     estimated scf accuracy    <       0.00712532 Ry

     iteration #  4     ecut=   100.00 Ry     beta= 0.70
     Davidson diagonalization with overlap
     c_bands:  1 eigenvalues not converged
     ethr =  9.63E-06,  avg # of iterations =  7.7

     total cpu time spent up to now is      560.4 secs

     total energy              =    -731.83118332 Ry
     estimated scf accuracy    <       0.01055590 Ry

     iteration #  5     ecut=   100.00 Ry     beta= 0.70
     Davidson diagonalization with overlap
     ethr =  9.63E-06,  avg # of iterations =  4.0

     total cpu time spent up to now is      649.2 secs

     total energy              =    -731.83240350 Ry
     estimated scf accuracy    <       0.00061029 Ry

     iteration #  6     ecut=   100.00 Ry     beta= 0.70
     Davidson diagonalization with overlap
     c_bands:  1 eigenvalues not converged
     ethr =  8.25E-07,  avg # of iterations =  6.5

     total cpu time spent up to now is      766.1 secs

     total energy              =    -731.83276947 Ry
     estimated scf accuracy    <       0.00007515 Ry

     iteration #  7     ecut=   100.00 Ry     beta= 0.70
     Davidson diagonalization with overlap
     ethr =  1.02E-07,  avg # of iterations =  4.9

     total cpu time spent up to now is      862.0 secs

     total energy              =    -731.83278798 Ry
     estimated scf accuracy    <       0.00000286 Ry

     iteration #  8     ecut=   100.00 Ry     beta= 0.70
     Davidson diagonalization with overlap
     c_bands:  1 eigenvalues not converged
     c_bands:  1 eigenvalues not converged
     ethr =  3.86E-09,  avg # of iterations =  8.2

     total cpu time spent up to now is     1009.8 secs

     End of self-consistent calculation

     Number of k-points >= 100: set verbosity='high' to print the bands.

     highest occupied level (ev):    13.3908

!    total energy              =    -731.83279115 Ry
     estimated scf accuracy    <       0.00000019 Ry

     The total energy is the sum of the following terms:
     one-electron contribution =    -132.46515015 Ry
     hartree contribution      =     135.90432721 Ry
     xc contribution           =    -248.97160556 Ry
     ewald contribution        =    -486.30036265 Ry

     convergence has been achieved in   8 iterations

     Forces acting on atoms (cartesian axes, Ry/au):

     atom    1 type  1   force =     0.00000000    0.00000000    0.00000000
     atom    2 type  1   force =     0.00000000   -0.00000000   -0.00000000
     atom    3 type  2   force =     0.00399377    0.00399377   -0.00000000
     atom    4 type  2   force =    -0.00399377   -0.00399377    0.00000000
     atom    5 type  2   force =    -0.00399377    0.00399377   -0.00000000
     atom    6 type  2   force =     0.00399377   -0.00399377    0.00000000
     The non-local contrib.  to forces
     atom    1 type  1   force =    -0.00000000    0.00000000    0.00000000
     atom    2 type  1   force =    -0.00000000    0.00000000    0.00000000
     atom    3 type  2   force =     0.09124826    0.09124826    0.00000000
     atom    4 type  2   force =    -0.09124826   -0.09124826   -0.00000000
     atom    5 type  2   force =    -0.09124826    0.09124826   -0.00000000
     atom    6 type  2   force =     0.09124826   -0.09124826    0.00000000
     The ionic contribution  to forces
     atom    1 type  1   force =     0.00000000   -0.00000000   -0.00000000
     atom    2 type  1   force =    -0.00000000   -0.00000000   -0.00000000
     atom    3 type  2   force =    -0.35333401   -0.35333401    0.00000000
     atom    4 type  2   force =     0.35333401    0.35333401   -0.00000000
     atom    5 type  2   force =     0.35333401   -0.35333401    0.00000000
     atom    6 type  2   force =    -0.35333401    0.35333401   -0.00000000
     The local contribution  to forces
     atom    1 type  1   force =     0.00000000   -0.00000000    0.00000000
     atom    2 type  1   force =    -0.00000000    0.00000000    0.00000000
     atom    3 type  2   force =     0.27020504    0.27020504   -0.00000000
     atom    4 type  2   force =    -0.27020504   -0.27020504    0.00000000
     atom    5 type  2   force =    -0.27020504    0.27020504   -0.00000000
     atom    6 type  2   force =     0.27020504   -0.27020504    0.00000000
     The core correction contribution to forces
     atom    1 type  1   force =    -0.00000000    0.00000000    0.00000000
     atom    2 type  1   force =     0.00000000   -0.00000000   -0.00000000
     atom    3 type  2   force =    -0.00401688   -0.00401688   -0.00000000
     atom    4 type  2   force =     0.00401688    0.00401688   -0.00000000
     atom    5 type  2   force =     0.00401688   -0.00401688    0.00000000
     atom    6 type  2   force =    -0.00401688    0.00401688   -0.00000000
     The Hubbard contrib.    to forces
     atom    1 type  1   force =     0.00000000    0.00000000    0.00000000
     atom    2 type  1   force =     0.00000000    0.00000000    0.00000000
     atom    3 type  2   force =     0.00000000    0.00000000    0.00000000
     atom    4 type  2   force =     0.00000000    0.00000000    0.00000000
     atom    5 type  2   force =     0.00000000    0.00000000    0.00000000
     atom    6 type  2   force =     0.00000000    0.00000000    0.00000000
     The SCF correction term to forces
     atom    1 type  1   force =    -0.00000000    0.00000000   -0.00000000
     atom    2 type  1   force =     0.00000000   -0.00000000   -0.00000000
     atom    3 type  2   force =    -0.00010864   -0.00010864    0.00000000
     atom    4 type  2   force =     0.00010864    0.00010864   -0.00000000
     atom    5 type  2   force =     0.00010864   -0.00010864   -0.00000000
     atom    6 type  2   force =    -0.00010864    0.00010864    0.00000000

     Total force =     0.011296     Total SCF correction =     0.000307

     BFGS Geometry Optimization
     Energy error            =      0.0E+00 Ry
     Gradient error          =      4.0E-03 Ry/Bohr

     bfgs converged in   1 scf cycles and   0 bfgs steps
     (criteria: energy <  1.0E-04 Ry, force <  1.0E-02 Ry/Bohr)

     End of BFGS Geometry Optimization

     Final energy             =    -731.8327911466 Ry
Begin final coordinates

ATOMIC_POSITIONS (crystal)
Au            0.0000000000        0.2500000000        0.2500000000
Au            0.0000000000       -0.2500000000       -0.2500000000
In           -0.5000000000        0.6488810000       -0.1488810000
In           -0.5000000000        0.3511190000        0.1488810000
In            0.2022380000        0.1488810000       -0.3511190000
In            0.7977620000       -0.1488810000       -0.6488810000
End final coordinates



     Writing all to output data dir ./tmp/AuIn2_Relax.save/

     init_run     :     12.42s CPU     40.89s WALL (       1 calls)
     electrons    :    296.11s CPU    966.65s WALL (       1 calls)
     forces       :      4.60s CPU     15.36s WALL (       1 calls)

     Called by init_run:
     wfcinit      :     10.73s CPU     36.23s WALL (       1 calls)
     potinit      :      0.28s CPU      0.86s WALL (       1 calls)
     hinit0       :      0.85s CPU      2.32s WALL (       1 calls)

     Called by electrons:
     c_bands      :    263.17s CPU    858.70s WALL (       9 calls)
     sum_band     :     32.06s CPU    104.98s WALL (       9 calls)
     v_of_rho     :      0.24s CPU      0.83s WALL (       9 calls)
     newd         :      0.70s CPU      2.12s WALL (       9 calls)
     mix_rho      :      0.04s CPU      0.16s WALL (       9 calls)

     Called by c_bands:
     init_us_2    :      1.68s CPU      2.34s WALL (    2040 calls)
     init_us_2:cp :      1.67s CPU      2.33s WALL (    2040 calls)
     cegterg      :    257.04s CPU    839.15s WALL (     918 calls)

     Called by *egterg:
     cdiaghg      :     16.37s CPU     58.27s WALL (    5723 calls)
     h_psi        :    168.29s CPU    564.93s WALL (    5927 calls)
     s_psi        :     13.11s CPU     22.83s WALL (    5927 calls)
     g_psi        :      0.27s CPU      0.48s WALL (    4907 calls)

     Called by h_psi:
     h_psi:calbec :     26.62s CPU    101.57s WALL (    5927 calls)
     vloc_psi     :    127.66s CPU    445.01s WALL (    5927 calls)
     add_vuspsi   :     13.40s CPU     17.52s WALL (    5927 calls)

     General routines
     calbec       :     36.87s CPU    133.02s WALL (    7253 calls)
     fft          :      0.53s CPU      2.03s WALL (     111 calls)
     ffts         :      0.01s CPU      0.15s WALL (       9 calls)
     fftw         :    135.17s CPU    506.08s WALL (  249668 calls)

     Parallel routines

     PWSCF        :   5m15.96s CPU  17m24.46s WALL


   This run was terminated on:  20: 9:19   8May2023            

=------------------------------------------------------------------------------=
   JOB DONE.
=------------------------------------------------------------------------------=
Note: The following floating-point exceptions are signalling: IEEE_INVALID_FLAG
