
     Program PWSCF v.7.2 starts on  8May2023 at 10:35:57 

     This program is part of the open-source Quantum ESPRESSO suite
     for quantum simulation of materials; please cite
         "P. Giannozzi et al., J. Phys.:Condens. Matter 21 395502 (2009);
         "P. Giannozzi et al., J. Phys.:Condens. Matter 29 465901 (2017);
         "P. Giannozzi et al., J. Chem. Phys. 152 154105 (2020);
          URL http://www.quantum-espresso.org", 
     in publications or presentations arising from this work. More details at
     http://www.quantum-espresso.org/quote

     Parallel version (MPI), running on    20 processors

     MPI processes distributed on     1 nodes
     1564 MiB available memory on the printing compute node when the environment starts

     Reading input from ./DFTData/AuIn2/relax/Relax_V720.00_0.in
Warning: card &CELL ignored
Warning: card / ignored

     Current dimensions of program PWSCF are:
     Max number of different atomic species (ntypx) = 10
     Max number of k-points (npk) =  40000
     Max angular momentum in pseudopotentials (lmaxx) =  4
     file In.pbe-dn-rrkjus_psl.1.0.0.UPF: wavefunction(s)  5S 4D renormalized

     R & G space division:  proc/nbgrp/npool/nimage =      20
     Subspace diagonalization in iterative solution of the eigenvalue problem:
     a serial algorithm will be used


     Parallelization info
     --------------------
     sticks:   dense  smooth     PW     G-vecs:    dense   smooth      PW
     Min         149     149     44                 4864     4864     787
     Max         150     150     45                 4866     4866     789
     Sum        2983    2983    883                97293    97293   15753

     Using Slab Decomposition



     bravais-lattice index     =            7
     lattice parameter (alat)  =      11.9546  a.u.
     unit-cell volume          =     720.0000 (a.u.)^3
     number of atoms/cell      =            6
     number of atomic types    =            2
     number of electrons       =        74.00
     number of Kohn-Sham states=           37
     kinetic-energy cutoff     =     100.0000  Ry
     charge density cutoff     =     400.0000  Ry
     scf convergence threshold =      1.0E-06
     mixing beta               =       0.7000
     number of iterations used =            8  plain     mixing
     energy convergence thresh.=      1.0E-04
     force convergence thresh. =      1.0E-02
     Exchange-correlation= PBE
                           (   1   4   3   4   0   0   0)
     nstep                     =           50


     celldm(1)=  11.954631  celldm(2)=   0.000000  celldm(3)=   0.842857
     celldm(4)=   0.000000  celldm(5)=   0.000000  celldm(6)=   0.000000

     crystal axes: (cart. coord. in units of alat)
               a(1) = (   0.500000  -0.500000   0.421429 )  
               a(2) = (   0.500000   0.500000   0.421429 )  
               a(3) = (  -0.500000  -0.500000   0.421429 )  

     reciprocal axes: (cart. coord. in units 2 pi/alat)
               b(1) = (  1.000000 -1.000000  0.000000 )  
               b(2) = (  0.000000  1.000000  1.186441 )  
               b(3) = ( -1.000000  0.000000  1.186441 )  


     PseudoPot. # 1 for Au read from file:
     ./pseudos/Au.pbe-n-rrkjus_psl.1.0.0.UPF
     MD5 check sum: d7e77ba19504afed2c9b41c931dde4f0
     Pseudo is Ultrasoft + core correction, Zval = 11.0
     Generated using &quot;atomic&quot; code by A. Dal Corso  v.6.3
     Using radial grid of 1279 points,  6 beta functions with: 
                l(1) =   0
                l(2) =   0
                l(3) =   1
                l(4) =   1
                l(5) =   2
                l(6) =   2
     Q(r) pseudized with 0 coefficients 


     PseudoPot. # 2 for In read from file:
     ./pseudos/In.pbe-dn-rrkjus_psl.1.0.0.UPF
     MD5 check sum: 7267d4f9f57825930b619e54710f1f3b
     Pseudo is Ultrasoft + core correction, Zval = 13.0
     Generated using &quot;atomic&quot; code by A. Dal Corso  v.6.3
     Using radial grid of 1241 points,  6 beta functions with: 
                l(1) =   0
                l(2) =   0
                l(3) =   1
                l(4) =   1
                l(5) =   2
                l(6) =   2
     Q(r) pseudized with 0 coefficients 


     atomic species   valence    mass     pseudopotential
        Au            11.00   196.96660     Au( 1.00)
        In            13.00   114.81800     In( 1.00)

     16 Sym. Ops., with inversion, found ( 8 have fractional translation)



   Cartesian axes

     site n.     atom                  positions (alat units)
         1           Au  tau(   1) = (   0.0000000   0.0000000   0.2107143  )
         2           Au  tau(   2) = (   0.0000000   0.0000000  -0.2107143  )
         3           In  tau(   3) = (   0.1488810   0.6488810   0.0000000  )
         4           In  tau(   4) = (  -0.1488810   0.3511190   0.0000000  )
         5           In  tau(   5) = (   0.3511190   0.1488810  -0.0000000  )
         6           In  tau(   6) = (   0.6488810  -0.1488810   0.0000000  )

     number of k points=   102

     Number of k-points >= 100: set verbosity='high' to print them.

     Dense  grid:    97293 G-vectors     FFT dimensions: (  64,  64,  64)

     Estimated max dynamical RAM per process >      57.41 MB

     Estimated total dynamical RAM >       1.12 GB

     Initial potential from superposition of free atoms

     starting charge      73.9849, renormalised to      74.0000
     Starting wfcs are   54 randomized atomic wfcs

     total cpu time spent up to now is       30.0 secs

     Self-consistent Calculation

     iteration #  1     ecut=   100.00 Ry     beta= 0.70
     Davidson diagonalization with overlap
     ethr =  1.00E-02,  avg # of iterations =  2.0

     Threshold (ethr) on eigenvalues was too large:
     Diagonalizing with lowered threshold

     Davidson diagonalization with overlap
     ethr =  4.49E-04,  avg # of iterations =  4.0

     total cpu time spent up to now is      144.9 secs

     total energy              =    -731.42676678 Ry
     estimated scf accuracy    <       0.42349237 Ry

     iteration #  2     ecut=   100.00 Ry     beta= 0.70
     Davidson diagonalization with overlap
     ethr =  5.72E-04,  avg # of iterations =  6.2

     total cpu time spent up to now is      222.3 secs

     total energy              =    -731.52125738 Ry
     estimated scf accuracy    <       0.54404934 Ry

     iteration #  3     ecut=   100.00 Ry     beta= 0.70
     Davidson diagonalization with overlap
     ethr =  5.72E-04,  avg # of iterations =  4.0

     total cpu time spent up to now is      283.3 secs

     total energy              =    -731.61485681 Ry
     estimated scf accuracy    <       0.00913333 Ry

     iteration #  4     ecut=   100.00 Ry     beta= 0.70
     Davidson diagonalization with overlap
     c_bands:  1 eigenvalues not converged
     c_bands:  1 eigenvalues not converged
     ethr =  1.23E-05,  avg # of iterations =  7.2

     total cpu time spent up to now is      379.1 secs

     total energy              =    -731.62589790 Ry
     estimated scf accuracy    <       0.01420811 Ry

     iteration #  5     ecut=   100.00 Ry     beta= 0.70
     Davidson diagonalization with overlap
     ethr =  1.23E-05,  avg # of iterations =  3.2

     total cpu time spent up to now is      437.6 secs

     total energy              =    -731.62692829 Ry
     estimated scf accuracy    <       0.00148582 Ry

     iteration #  6     ecut=   100.00 Ry     beta= 0.70
     Davidson diagonalization with overlap
     c_bands:  1 eigenvalues not converged
     ethr =  2.01E-06,  avg # of iterations =  5.9

     total cpu time spent up to now is      517.5 secs

     total energy              =    -731.62757192 Ry
     estimated scf accuracy    <       0.00003190 Ry

     iteration #  7     ecut=   100.00 Ry     beta= 0.70
     Davidson diagonalization with overlap
     ethr =  4.31E-08,  avg # of iterations =  7.7

     total cpu time spent up to now is      602.2 secs

     total energy              =    -731.62759380 Ry
     estimated scf accuracy    <       0.00000410 Ry

     iteration #  8     ecut=   100.00 Ry     beta= 0.70
     Davidson diagonalization with overlap
     ethr =  5.53E-09,  avg # of iterations =  4.8

     total cpu time spent up to now is      663.9 secs

     total energy              =    -731.62759261 Ry
     estimated scf accuracy    <       0.00000344 Ry

     iteration #  9     ecut=   100.00 Ry     beta= 0.70
     Davidson diagonalization with overlap
     ethr =  4.65E-09,  avg # of iterations =  4.7

     total cpu time spent up to now is      728.0 secs

     End of self-consistent calculation

     Number of k-points >= 100: set verbosity='high' to print the bands.

     highest occupied level (ev):    18.8994

!    total energy              =    -731.62759361 Ry
     estimated scf accuracy    <       0.00000004 Ry

     The total energy is the sum of the following terms:
     one-electron contribution =     -62.00941596 Ry
     hartree contribution      =     113.18780736 Ry
     xc contribution           =    -250.05643937 Ry
     ewald contribution        =    -532.74954563 Ry

     convergence has been achieved in   9 iterations

     Forces acting on atoms (cartesian axes, Ry/au):

     atom    1 type  1   force =     0.00000000   -0.00000000   -0.00000000
     atom    2 type  1   force =    -0.00000000    0.00000000    0.00000000
     atom    3 type  2   force =     0.00583623    0.00583623    0.00000000
     atom    4 type  2   force =    -0.00583623   -0.00583623   -0.00000000
     atom    5 type  2   force =    -0.00583623    0.00583623   -0.00000000
     atom    6 type  2   force =     0.00583623   -0.00583623   -0.00000000
     The non-local contrib.  to forces
     atom    1 type  1   force =     0.00000000    0.00000000    0.00000000
     atom    2 type  1   force =     0.00000000    0.00000000    0.00000000
     atom    3 type  2   force =     0.14386731    0.14386731    0.00000000
     atom    4 type  2   force =    -0.14386731   -0.14386731    0.00000000
     atom    5 type  2   force =    -0.14386731    0.14386731   -0.00000000
     atom    6 type  2   force =     0.14386731   -0.14386731    0.00000000
     The ionic contribution  to forces
     atom    1 type  1   force =    -0.00000000   -0.00000000    0.00000000
     atom    2 type  1   force =     0.00000000    0.00000000   -0.00000000
     atom    3 type  2   force =    -0.34983640   -0.34983640    0.00000000
     atom    4 type  2   force =     0.34983640    0.34983640   -0.00000000
     atom    5 type  2   force =     0.34983640   -0.34983640    0.00000000
     atom    6 type  2   force =    -0.34983640    0.34983640   -0.00000000
     The local contribution  to forces
     atom    1 type  1   force =     0.00000000   -0.00000000    0.00000000
     atom    2 type  1   force =    -0.00000000    0.00000000   -0.00000000
     atom    3 type  2   force =     0.21736857    0.21736857   -0.00000000
     atom    4 type  2   force =    -0.21736857   -0.21736857    0.00000000
     atom    5 type  2   force =    -0.21736857    0.21736857    0.00000000
     atom    6 type  2   force =     0.21736857   -0.21736857    0.00000000
     The core correction contribution to forces
     atom    1 type  1   force =    -0.00000000   -0.00000000    0.00000000
     atom    2 type  1   force =     0.00000000    0.00000000    0.00000000
     atom    3 type  2   force =    -0.00595144   -0.00595144   -0.00000000
     atom    4 type  2   force =     0.00595144    0.00595144    0.00000000
     atom    5 type  2   force =     0.00595144   -0.00595144   -0.00000000
     atom    6 type  2   force =    -0.00595144    0.00595144    0.00000000
     The Hubbard contrib.    to forces
     atom    1 type  1   force =     0.00000000    0.00000000    0.00000000
     atom    2 type  1   force =     0.00000000    0.00000000    0.00000000
     atom    3 type  2   force =     0.00000000    0.00000000    0.00000000
     atom    4 type  2   force =     0.00000000    0.00000000    0.00000000
     atom    5 type  2   force =     0.00000000    0.00000000    0.00000000
     atom    6 type  2   force =     0.00000000    0.00000000    0.00000000
     The SCF correction term to forces
     atom    1 type  1   force =    -0.00000000    0.00000000    0.00000000
     atom    2 type  1   force =     0.00000000   -0.00000000   -0.00000000
     atom    3 type  2   force =     0.00038819    0.00038819    0.00000000
     atom    4 type  2   force =    -0.00038819   -0.00038819   -0.00000000
     atom    5 type  2   force =    -0.00038819    0.00038819    0.00000000
     atom    6 type  2   force =     0.00038819   -0.00038819   -0.00000000

     Total force =     0.016507     Total SCF correction =     0.001098

     BFGS Geometry Optimization
     Energy error            =      0.0E+00 Ry
     Gradient error          =      5.8E-03 Ry/Bohr

     bfgs converged in   1 scf cycles and   0 bfgs steps
     (criteria: energy <  1.0E-04 Ry, force <  1.0E-02 Ry/Bohr)

     End of BFGS Geometry Optimization

     Final energy             =    -731.6275936125 Ry
Begin final coordinates

ATOMIC_POSITIONS (crystal)
Au            0.0000000000        0.2500000000        0.2500000000
Au            0.0000000000       -0.2500000000       -0.2500000000
In           -0.5000000000        0.6488810000       -0.1488810000
In           -0.5000000000        0.3511190000        0.1488810000
In            0.2022380000        0.1488810000       -0.3511190000
In            0.7977620000       -0.1488810000       -0.6488810000
End final coordinates



     Writing all to output data dir ./tmp/AuIn2_Relax.save/

     init_run     :      9.03s CPU     27.79s WALL (       1 calls)
     electrons    :    223.87s CPU    698.07s WALL (       1 calls)
     forces       :      3.90s CPU     12.21s WALL (       1 calls)

     Called by init_run:
     wfcinit      :      7.90s CPU     24.42s WALL (       1 calls)
     potinit      :      0.18s CPU      0.57s WALL (       1 calls)
     hinit0       :      0.55s CPU      1.65s WALL (       1 calls)

     Called by electrons:
     c_bands      :    198.47s CPU    620.21s WALL (      10 calls)
     sum_band     :     24.65s CPU     75.30s WALL (      10 calls)
     v_of_rho     :      0.17s CPU      0.65s WALL (      10 calls)
     newd         :      0.63s CPU      1.87s WALL (      10 calls)
     mix_rho      :      0.02s CPU      0.11s WALL (      10 calls)

     Called by c_bands:
     init_us_2    :      1.46s CPU      1.96s WALL (    2244 calls)
     init_us_2:cp :      1.45s CPU      1.96s WALL (    2244 calls)
     cegterg      :    193.38s CPU    603.65s WALL (    1020 calls)

     Called by *egterg:
     cdiaghg      :     16.64s CPU     57.07s WALL (    5989 calls)
     h_psi        :    117.34s CPU    371.13s WALL (    6193 calls)
     s_psi        :     10.89s CPU     16.03s WALL (    6193 calls)
     g_psi        :      0.22s CPU      0.41s WALL (    5071 calls)

     Called by h_psi:
     h_psi:calbec :     24.82s CPU     91.89s WALL (    6193 calls)
     vloc_psi     :     80.89s CPU    264.24s WALL (    6193 calls)
     add_vuspsi   :     11.14s CPU     14.35s WALL (    6193 calls)

     General routines
     calbec       :     34.74s CPU    120.60s WALL (    7621 calls)
     fft          :      0.30s CPU      1.24s WALL (     122 calls)
     ffts         :      0.02s CPU      0.11s WALL (      10 calls)
     fftw         :     83.17s CPU    299.81s WALL (  266132 calls)

     Parallel routines

     PWSCF        :   3m59.57s CPU  12m36.82s WALL


   This run was terminated on:  10:48:34   8May2023            

=------------------------------------------------------------------------------=
   JOB DONE.
=------------------------------------------------------------------------------=
Note: The following floating-point exceptions are signalling: IEEE_INVALID_FLAG
