
     Program PWSCF v.7.2 starts on  8May2023 at 12:36:35 

     This program is part of the open-source Quantum ESPRESSO suite
     for quantum simulation of materials; please cite
         "P. Giannozzi et al., J. Phys.:Condens. Matter 21 395502 (2009);
         "P. Giannozzi et al., J. Phys.:Condens. Matter 29 465901 (2017);
         "P. Giannozzi et al., J. Chem. Phys. 152 154105 (2020);
          URL http://www.quantum-espresso.org", 
     in publications or presentations arising from this work. More details at
     http://www.quantum-espresso.org/quote

     Parallel version (MPI), running on    20 processors

     MPI processes distributed on     1 nodes
     1628 MiB available memory on the printing compute node when the environment starts

     Reading input from ./DFTData/AuIn2/relax/Relax_V740.00_0.in
Warning: card &CELL ignored
Warning: card / ignored

     Current dimensions of program PWSCF are:
     Max number of different atomic species (ntypx) = 10
     Max number of k-points (npk) =  40000
     Max angular momentum in pseudopotentials (lmaxx) =  4
     file In.pbe-dn-rrkjus_psl.1.0.0.UPF: wavefunction(s)  5S 4D renormalized

     R & G space division:  proc/nbgrp/npool/nimage =      20
     Subspace diagonalization in iterative solution of the eigenvalue problem:
     a serial algorithm will be used


     Parallelization info
     --------------------
     sticks:   dense  smooth     PW     G-vecs:    dense   smooth      PW
     Min         151     151     45                 5003     5003     811
     Max         152     152     46                 5007     5007     813
     Sum        3029    3029    907               100089   100089   16241

     Using Slab Decomposition



     bravais-lattice index     =            7
     lattice parameter (alat)  =      12.0643  a.u.
     unit-cell volume          =     740.0000 (a.u.)^3
     number of atoms/cell      =            6
     number of atomic types    =            2
     number of electrons       =        74.00
     number of Kohn-Sham states=           37
     kinetic-energy cutoff     =     100.0000  Ry
     charge density cutoff     =     400.0000  Ry
     scf convergence threshold =      1.0E-06
     mixing beta               =       0.7000
     number of iterations used =            8  plain     mixing
     energy convergence thresh.=      1.0E-04
     force convergence thresh. =      1.0E-02
     Exchange-correlation= PBE
                           (   1   4   3   4   0   0   0)
     nstep                     =           50


     celldm(1)=  12.064313  celldm(2)=   0.000000  celldm(3)=   0.842857
     celldm(4)=   0.000000  celldm(5)=   0.000000  celldm(6)=   0.000000

     crystal axes: (cart. coord. in units of alat)
               a(1) = (   0.500000  -0.500000   0.421429 )  
               a(2) = (   0.500000   0.500000   0.421429 )  
               a(3) = (  -0.500000  -0.500000   0.421429 )  

     reciprocal axes: (cart. coord. in units 2 pi/alat)
               b(1) = (  1.000000 -1.000000  0.000000 )  
               b(2) = (  0.000000  1.000000  1.186441 )  
               b(3) = ( -1.000000  0.000000  1.186441 )  


     PseudoPot. # 1 for Au read from file:
     ./pseudos/Au.pbe-n-rrkjus_psl.1.0.0.UPF
     MD5 check sum: d7e77ba19504afed2c9b41c931dde4f0
     Pseudo is Ultrasoft + core correction, Zval = 11.0
     Generated using &quot;atomic&quot; code by A. Dal Corso  v.6.3
     Using radial grid of 1279 points,  6 beta functions with: 
                l(1) =   0
                l(2) =   0
                l(3) =   1
                l(4) =   1
                l(5) =   2
                l(6) =   2
     Q(r) pseudized with 0 coefficients 


     PseudoPot. # 2 for In read from file:
     ./pseudos/In.pbe-dn-rrkjus_psl.1.0.0.UPF
     MD5 check sum: 7267d4f9f57825930b619e54710f1f3b
     Pseudo is Ultrasoft + core correction, Zval = 13.0
     Generated using &quot;atomic&quot; code by A. Dal Corso  v.6.3
     Using radial grid of 1241 points,  6 beta functions with: 
                l(1) =   0
                l(2) =   0
                l(3) =   1
                l(4) =   1
                l(5) =   2
                l(6) =   2
     Q(r) pseudized with 0 coefficients 


     atomic species   valence    mass     pseudopotential
        Au            11.00   196.96660     Au( 1.00)
        In            13.00   114.81800     In( 1.00)

     16 Sym. Ops., with inversion, found ( 8 have fractional translation)



   Cartesian axes

     site n.     atom                  positions (alat units)
         1           Au  tau(   1) = (   0.0000000   0.0000000   0.2107143  )
         2           Au  tau(   2) = (   0.0000000   0.0000000  -0.2107143  )
         3           In  tau(   3) = (   0.1488810   0.6488810   0.0000000  )
         4           In  tau(   4) = (  -0.1488810   0.3511190   0.0000000  )
         5           In  tau(   5) = (   0.3511190   0.1488810  -0.0000000  )
         6           In  tau(   6) = (   0.6488810  -0.1488810   0.0000000  )

     number of k points=   102

     Number of k-points >= 100: set verbosity='high' to print them.

     Dense  grid:   100089 G-vectors     FFT dimensions: (  64,  64,  64)

     Estimated max dynamical RAM per process >      58.91 MB

     Estimated total dynamical RAM >       1.15 GB

     Initial potential from superposition of free atoms

     starting charge      73.9849, renormalised to      74.0000
     Starting wfcs are   54 randomized atomic wfcs

     total cpu time spent up to now is       29.4 secs

     Self-consistent Calculation

     iteration #  1     ecut=   100.00 Ry     beta= 0.70
     Davidson diagonalization with overlap
     ethr =  1.00E-02,  avg # of iterations =  2.0

     Threshold (ethr) on eigenvalues was too large:
     Diagonalizing with lowered threshold

     Davidson diagonalization with overlap
     ethr =  4.44E-04,  avg # of iterations =  4.0

     total cpu time spent up to now is      144.4 secs

     total energy              =    -731.47416179 Ry
     estimated scf accuracy    <       0.41685850 Ry

     iteration #  2     ecut=   100.00 Ry     beta= 0.70
     Davidson diagonalization with overlap
     ethr =  5.63E-04,  avg # of iterations =  6.2

     total cpu time spent up to now is      222.9 secs

     total energy              =    -731.56748224 Ry
     estimated scf accuracy    <       0.54595978 Ry

     iteration #  3     ecut=   100.00 Ry     beta= 0.70
     Davidson diagonalization with overlap
     ethr =  5.63E-04,  avg # of iterations =  4.1

     total cpu time spent up to now is      285.7 secs

     total energy              =    -731.65965277 Ry
     estimated scf accuracy    <       0.00954072 Ry

     iteration #  4     ecut=   100.00 Ry     beta= 0.70
     Davidson diagonalization with overlap
     c_bands:  1 eigenvalues not converged
     ethr =  1.29E-05,  avg # of iterations =  7.4

     total cpu time spent up to now is      378.0 secs

     total energy              =    -731.67090577 Ry
     estimated scf accuracy    <       0.01357769 Ry

     iteration #  5     ecut=   100.00 Ry     beta= 0.70
     Davidson diagonalization with overlap
     ethr =  1.29E-05,  avg # of iterations =  3.3

     total cpu time spent up to now is      439.3 secs

     total energy              =    -731.67175685 Ry
     estimated scf accuracy    <       0.00160466 Ry

     iteration #  6     ecut=   100.00 Ry     beta= 0.70
     Davidson diagonalization with overlap
     ethr =  2.17E-06,  avg # of iterations =  5.6

     total cpu time spent up to now is      517.8 secs

     total energy              =    -731.67238071 Ry
     estimated scf accuracy    <       0.00002765 Ry

     iteration #  7     ecut=   100.00 Ry     beta= 0.70
     Davidson diagonalization with overlap
     c_bands:  1 eigenvalues not converged
     ethr =  3.74E-08,  avg # of iterations =  8.0

     total cpu time spent up to now is      610.9 secs

     total energy              =    -731.67241945 Ry
     estimated scf accuracy    <       0.00000237 Ry

     iteration #  8     ecut=   100.00 Ry     beta= 0.70
     Davidson diagonalization with overlap
     ethr =  3.21E-09,  avg # of iterations =  7.9

     total cpu time spent up to now is      716.7 secs

     total energy              =    -731.67241994 Ry
     estimated scf accuracy    <       0.00000962 Ry

     iteration #  9     ecut=   100.00 Ry     beta= 0.70
     Davidson diagonalization with overlap
     ethr =  3.21E-09,  avg # of iterations =  5.3

     total cpu time spent up to now is      789.3 secs

     End of self-consistent calculation

     Number of k-points >= 100: set verbosity='high' to print the bands.

     highest occupied level (ev):    18.2681

!    total energy              =    -731.67242103 Ry
     estimated scf accuracy    <       0.00000031 Ry

     The total energy is the sum of the following terms:
     one-electron contribution =     -69.24132680 Ry
     hartree contribution      =     115.39713601 Ry
     xc contribution           =    -249.92213038 Ry
     ewald contribution        =    -527.90609986 Ry

     convergence has been achieved in   9 iterations

     Forces acting on atoms (cartesian axes, Ry/au):

     atom    1 type  1   force =     0.00000000    0.00000000    0.00000000
     atom    2 type  1   force =     0.00000000   -0.00000000   -0.00000000
     atom    3 type  2   force =     0.00622980    0.00622980    0.00000000
     atom    4 type  2   force =    -0.00622980   -0.00622980    0.00000000
     atom    5 type  2   force =    -0.00622980    0.00622980    0.00000000
     atom    6 type  2   force =     0.00622980   -0.00622980    0.00000000
     The non-local contrib.  to forces
     atom    1 type  1   force =     0.00000000    0.00000000    0.00000000
     atom    2 type  1   force =     0.00000000    0.00000000    0.00000000
     atom    3 type  2   force =     0.13942752    0.13942752    0.00000000
     atom    4 type  2   force =    -0.13942752   -0.13942752    0.00000000
     atom    5 type  2   force =    -0.13942752    0.13942752    0.00000000
     atom    6 type  2   force =     0.13942752   -0.13942752   -0.00000000
     The ionic contribution  to forces
     atom    1 type  1   force =     0.00000000   -0.00000000   -0.00000000
     atom    2 type  1   force =    -0.00000000    0.00000000    0.00000000
     atom    3 type  2   force =    -0.34350430   -0.34350430    0.00000000
     atom    4 type  2   force =     0.34350430    0.34350430   -0.00000000
     atom    5 type  2   force =     0.34350430   -0.34350430    0.00000000
     atom    6 type  2   force =    -0.34350430    0.34350430   -0.00000000
     The local contribution  to forces
     atom    1 type  1   force =     0.00000000   -0.00000000    0.00000000
     atom    2 type  1   force =    -0.00000000    0.00000000   -0.00000000
     atom    3 type  2   force =     0.21593122    0.21593122    0.00000000
     atom    4 type  2   force =    -0.21593122   -0.21593122   -0.00000000
     atom    5 type  2   force =    -0.21593122    0.21593122    0.00000000
     atom    6 type  2   force =     0.21593122   -0.21593122    0.00000000
     The core correction contribution to forces
     atom    1 type  1   force =    -0.00000000   -0.00000000   -0.00000000
     atom    2 type  1   force =     0.00000000    0.00000000    0.00000000
     atom    3 type  2   force =    -0.00577961   -0.00577961   -0.00000000
     atom    4 type  2   force =     0.00577961    0.00577961    0.00000000
     atom    5 type  2   force =     0.00577961   -0.00577961    0.00000000
     atom    6 type  2   force =    -0.00577961    0.00577961    0.00000000
     The Hubbard contrib.    to forces
     atom    1 type  1   force =     0.00000000    0.00000000    0.00000000
     atom    2 type  1   force =     0.00000000    0.00000000    0.00000000
     atom    3 type  2   force =     0.00000000    0.00000000    0.00000000
     atom    4 type  2   force =     0.00000000    0.00000000    0.00000000
     atom    5 type  2   force =     0.00000000    0.00000000    0.00000000
     atom    6 type  2   force =     0.00000000    0.00000000    0.00000000
     The SCF correction term to forces
     atom    1 type  1   force =     0.00000000   -0.00000000   -0.00000000
     atom    2 type  1   force =    -0.00000000    0.00000000    0.00000000
     atom    3 type  2   force =     0.00015496    0.00015496   -0.00000000
     atom    4 type  2   force =    -0.00015496   -0.00015496    0.00000000
     atom    5 type  2   force =    -0.00015496    0.00015496   -0.00000000
     atom    6 type  2   force =     0.00015496   -0.00015496    0.00000000

     Total force =     0.017621     Total SCF correction =     0.000438

     BFGS Geometry Optimization
     Energy error            =      0.0E+00 Ry
     Gradient error          =      6.2E-03 Ry/Bohr

     bfgs converged in   1 scf cycles and   0 bfgs steps
     (criteria: energy <  1.0E-04 Ry, force <  1.0E-02 Ry/Bohr)

     End of BFGS Geometry Optimization

     Final energy             =    -731.6724210258 Ry
Begin final coordinates

ATOMIC_POSITIONS (crystal)
Au            0.0000000000        0.2500000000        0.2500000000
Au            0.0000000000       -0.2500000000       -0.2500000000
In           -0.5000000000        0.6488810000       -0.1488810000
In           -0.5000000000        0.3511190000        0.1488810000
In            0.2022380000        0.1488810000       -0.3511190000
In            0.7977620000       -0.1488810000       -0.6488810000
End final coordinates



     Writing all to output data dir ./tmp/AuIn2_Relax.save/

     init_run     :      8.78s CPU     27.68s WALL (       1 calls)
     electrons    :    242.64s CPU    759.99s WALL (       1 calls)
     forces       :      3.78s CPU     12.22s WALL (       1 calls)

     Called by init_run:
     wfcinit      :      7.67s CPU     24.19s WALL (       1 calls)
     potinit      :      0.18s CPU      0.56s WALL (       1 calls)
     hinit0       :      0.54s CPU      1.73s WALL (       1 calls)

     Called by electrons:
     c_bands      :    217.29s CPU    682.91s WALL (      10 calls)
     sum_band     :     24.50s CPU     74.60s WALL (      10 calls)
     v_of_rho     :      0.19s CPU      0.59s WALL (      10 calls)
     newd         :      0.67s CPU      1.87s WALL (      10 calls)
     mix_rho      :      0.03s CPU      0.11s WALL (      10 calls)

     Called by c_bands:
     init_us_2    :      1.40s CPU      1.74s WALL (    2244 calls)
     init_us_2:cp :      1.39s CPU      1.73s WALL (    2244 calls)
     cegterg      :    212.02s CPU    665.62s WALL (    1020 calls)

     Called by *egterg:
     cdiaghg      :     18.39s CPU     62.22s WALL (    6406 calls)
     h_psi        :    126.20s CPU    402.88s WALL (    6610 calls)
     s_psi        :     11.63s CPU     16.47s WALL (    6610 calls)
     g_psi        :      0.25s CPU      0.39s WALL (    5488 calls)

     Called by h_psi:
     h_psi:calbec :     27.23s CPU    100.78s WALL (    6610 calls)
     vloc_psi     :     86.62s CPU    286.77s WALL (    6610 calls)
     add_vuspsi   :     11.83s CPU     14.68s WALL (    6610 calls)

     General routines
     calbec       :     37.07s CPU    129.30s WALL (    8038 calls)
     fft          :      0.28s CPU      1.10s WALL (     122 calls)
     ffts         :      0.02s CPU      0.15s WALL (      10 calls)
     fftw         :     87.86s CPU    321.57s WALL (  283004 calls)

     Parallel routines

     PWSCF        :   4m18.05s CPU  13m38.22s WALL


   This run was terminated on:  12:50:14   8May2023            

=------------------------------------------------------------------------------=
   JOB DONE.
=------------------------------------------------------------------------------=
Note: The following floating-point exceptions are signalling: IEEE_INVALID_FLAG
