
     Program PWSCF v.7.2 starts on  8May2023 at  6:10:52 

     This program is part of the open-source Quantum ESPRESSO suite
     for quantum simulation of materials; please cite
         "P. Giannozzi et al., J. Phys.:Condens. Matter 21 395502 (2009);
         "P. Giannozzi et al., J. Phys.:Condens. Matter 29 465901 (2017);
         "P. Giannozzi et al., J. Chem. Phys. 152 154105 (2020);
          URL http://www.quantum-espresso.org", 
     in publications or presentations arising from this work. More details at
     http://www.quantum-espresso.org/quote

     Parallel version (MPI), running on    20 processors

     MPI processes distributed on     1 nodes
     2820 MiB available memory on the printing compute node when the environment starts

     Reading input from ./DFTData/AuIn2/relax/Relax_V700.00_0.in
Warning: card &CELL ignored
Warning: card / ignored

     Current dimensions of program PWSCF are:
     Max number of different atomic species (ntypx) = 10
     Max number of k-points (npk) =  40000
     Max angular momentum in pseudopotentials (lmaxx) =  4
     file In.pbe-dn-rrkjus_psl.1.0.0.UPF: wavefunction(s)  5S 4D renormalized

     R & G space division:  proc/nbgrp/npool/nimage =      20
     Subspace diagonalization in iterative solution of the eigenvalue problem:
     a serial algorithm will be used


     Parallelization info
     --------------------
     sticks:   dense  smooth     PW     G-vecs:    dense   smooth      PW
     Min         147     147     43                 4726     4726     761
     Max         148     148     44                 4727     4727     764
     Sum        2959    2959    863                94531    94531   15257

     Using Slab Decomposition



     bravais-lattice index     =            7
     lattice parameter (alat)  =      11.9798  a.u.
     unit-cell volume          =     700.0000 (a.u.)^3
     number of atoms/cell      =            6
     number of atomic types    =            2
     number of electrons       =        74.00
     number of Kohn-Sham states=           37
     kinetic-energy cutoff     =     100.0000  Ry
     charge density cutoff     =     400.0000  Ry
     scf convergence threshold =      1.0E-06
     mixing beta               =       0.7000
     number of iterations used =            8  plain     mixing
     energy convergence thresh.=      1.0E-04
     force convergence thresh. =      1.0E-02
     Exchange-correlation= PBE
                           (   1   4   3   4   0   0   0)
     nstep                     =           50


     celldm(1)=  11.979823  celldm(2)=   0.000000  celldm(3)=   0.814286
     celldm(4)=   0.000000  celldm(5)=   0.000000  celldm(6)=   0.000000

     crystal axes: (cart. coord. in units of alat)
               a(1) = (   0.500000  -0.500000   0.407143 )  
               a(2) = (   0.500000   0.500000   0.407143 )  
               a(3) = (  -0.500000  -0.500000   0.407143 )  

     reciprocal axes: (cart. coord. in units 2 pi/alat)
               b(1) = (  1.000000 -1.000000  0.000000 )  
               b(2) = (  0.000000  1.000000  1.228070 )  
               b(3) = ( -1.000000  0.000000  1.228070 )  


     PseudoPot. # 1 for Au read from file:
     ./pseudos/Au.pbe-n-rrkjus_psl.1.0.0.UPF
     MD5 check sum: d7e77ba19504afed2c9b41c931dde4f0
     Pseudo is Ultrasoft + core correction, Zval = 11.0
     Generated using &quot;atomic&quot; code by A. Dal Corso  v.6.3
     Using radial grid of 1279 points,  6 beta functions with: 
                l(1) =   0
                l(2) =   0
                l(3) =   1
                l(4) =   1
                l(5) =   2
                l(6) =   2
     Q(r) pseudized with 0 coefficients 


     PseudoPot. # 2 for In read from file:
     ./pseudos/In.pbe-dn-rrkjus_psl.1.0.0.UPF
     MD5 check sum: 7267d4f9f57825930b619e54710f1f3b
     Pseudo is Ultrasoft + core correction, Zval = 13.0
     Generated using &quot;atomic&quot; code by A. Dal Corso  v.6.3
     Using radial grid of 1241 points,  6 beta functions with: 
                l(1) =   0
                l(2) =   0
                l(3) =   1
                l(4) =   1
                l(5) =   2
                l(6) =   2
     Q(r) pseudized with 0 coefficients 


     atomic species   valence    mass     pseudopotential
        Au            11.00   196.96660     Au( 1.00)
        In            13.00   114.81800     In( 1.00)

     16 Sym. Ops., with inversion, found ( 8 have fractional translation)



   Cartesian axes

     site n.     atom                  positions (alat units)
         1           Au  tau(   1) = (   0.0000000   0.0000000   0.2035714  )
         2           Au  tau(   2) = (   0.0000000   0.0000000  -0.2035714  )
         3           In  tau(   3) = (   0.1304000   0.6304000   0.0000000  )
         4           In  tau(   4) = (  -0.1304000   0.3696000   0.0000000  )
         5           In  tau(   5) = (   0.3696005   0.1303995   0.0000004  )
         6           In  tau(   6) = (   0.6303995  -0.1303995  -0.0000004  )

     number of k points=   102

     Number of k-points >= 100: set verbosity='high' to print them.

     Dense  grid:    94531 G-vectors     FFT dimensions: (  64,  64,  64)

     Estimated max dynamical RAM per process >      55.98 MB

     Estimated total dynamical RAM >       1.09 GB

     Initial potential from superposition of free atoms

     starting charge      73.9849, renormalised to      74.0000
     Starting wfcs are   54 randomized atomic wfcs

     total cpu time spent up to now is       27.6 secs

     Self-consistent Calculation

     iteration #  1     ecut=   100.00 Ry     beta= 0.70
     Davidson diagonalization with overlap
     ethr =  1.00E-02,  avg # of iterations =  2.0

     Threshold (ethr) on eigenvalues was too large:
     Diagonalizing with lowered threshold

     Davidson diagonalization with overlap
     ethr =  4.41E-04,  avg # of iterations =  4.0

     total cpu time spent up to now is      139.5 secs

     total energy              =    -731.25804797 Ry
     estimated scf accuracy    <       0.43295114 Ry

     iteration #  2     ecut=   100.00 Ry     beta= 0.70
     Davidson diagonalization with overlap
     ethr =  5.85E-04,  avg # of iterations =  5.9

     total cpu time spent up to now is      215.2 secs

     total energy              =    -731.35909499 Ry
     estimated scf accuracy    <       0.51935034 Ry

     iteration #  3     ecut=   100.00 Ry     beta= 0.70
     Davidson diagonalization with overlap
     ethr =  5.85E-04,  avg # of iterations =  3.8

     total cpu time spent up to now is      275.4 secs

     total energy              =    -731.44768703 Ry
     estimated scf accuracy    <       0.00934258 Ry

     iteration #  4     ecut=   100.00 Ry     beta= 0.70
     Davidson diagonalization with overlap
     ethr =  1.26E-05,  avg # of iterations =  6.5

     total cpu time spent up to now is      370.8 secs

     total energy              =    -731.45777185 Ry
     estimated scf accuracy    <       0.01399914 Ry

     iteration #  5     ecut=   100.00 Ry     beta= 0.70
     Davidson diagonalization with overlap
     ethr =  1.26E-05,  avg # of iterations =  3.3

     total cpu time spent up to now is      429.3 secs

     total energy              =    -731.45914765 Ry
     estimated scf accuracy    <       0.00105788 Ry

     iteration #  6     ecut=   100.00 Ry     beta= 0.70
     Davidson diagonalization with overlap
     c_bands:  1 eigenvalues not converged
     ethr =  1.43E-06,  avg # of iterations =  5.9

     total cpu time spent up to now is      506.8 secs

     total energy              =    -731.45977011 Ry
     estimated scf accuracy    <       0.00006567 Ry

     iteration #  7     ecut=   100.00 Ry     beta= 0.70
     Davidson diagonalization with overlap
     ethr =  8.87E-08,  avg # of iterations =  5.4

     total cpu time spent up to now is      574.5 secs

     total energy              =    -731.45979134 Ry
     estimated scf accuracy    <       0.00000177 Ry

     iteration #  8     ecut=   100.00 Ry     beta= 0.70
     Davidson diagonalization with overlap
     c_bands:  1 eigenvalues not converged
     ethr =  2.39E-09,  avg # of iterations =  7.5

     total cpu time spent up to now is      672.4 secs

     total energy              =    -731.45979228 Ry
     estimated scf accuracy    <       0.00000106 Ry

     iteration #  9     ecut=   100.00 Ry     beta= 0.70
     Davidson diagonalization with overlap
     c_bands:  1 eigenvalues not converged
     ethr =  1.43E-09,  avg # of iterations =  4.5

     total cpu time spent up to now is      735.4 secs

     End of self-consistent calculation

     Number of k-points >= 100: set verbosity='high' to print the bands.

     highest occupied level (ev):    19.2207

!    total energy              =    -731.45979259 Ry
     estimated scf accuracy    <          6.6E-09 Ry

     The total energy is the sum of the following terms:
     one-electron contribution =     -58.86856759 Ry
     hartree contribution      =     112.93225086 Ry
     xc contribution           =    -250.23696083 Ry
     ewald contribution        =    -535.28651503 Ry

     convergence has been achieved in   9 iterations

     Forces acting on atoms (cartesian axes, Ry/au):

     atom    1 type  1   force =     0.00000000    0.00000000   -0.00000000
     atom    2 type  1   force =    -0.00000000    0.00000000    0.00000000
     atom    3 type  2   force =     0.14814206    0.14814206    0.00000000
     atom    4 type  2   force =    -0.14814206   -0.14814206   -0.00000000
     atom    5 type  2   force =    -0.14814206    0.14814206   -0.00000000
     atom    6 type  2   force =     0.14814206   -0.14814206   -0.00000000
     The non-local contrib.  to forces
     atom    1 type  1   force =     0.00000000   -0.00000000   -0.00000000
     atom    2 type  1   force =    -0.00000000    0.00000000    0.00000000
     atom    3 type  2   force =     0.17612269    0.17612269    0.00000000
     atom    4 type  2   force =    -0.17612269   -0.17612269    0.00000000
     atom    5 type  2   force =    -0.17612269    0.17612269    0.00000000
     atom    6 type  2   force =     0.17612269   -0.17612269   -0.00000000
     The ionic contribution  to forces
     atom    1 type  1   force =    -0.00002168   -0.00002168   -0.00000000
     atom    2 type  1   force =     0.00002168    0.00002168    0.00000000
     atom    3 type  2   force =     3.55328638    3.55328638   -0.00000000
     atom    4 type  2   force =    -3.55328638   -3.55328638    0.00000000
     atom    5 type  2   force =    -3.55342022    3.55342022   -0.00003635
     atom    6 type  2   force =     3.55342022   -3.55342022    0.00003635
     The local contribution  to forces
     atom    1 type  1   force =    -0.00000000   -0.00000000    0.00000000
     atom    2 type  1   force =     0.00000000    0.00000000   -0.00000000
     atom    3 type  2   force =    -3.56116767   -3.56116767    0.00000000
     atom    4 type  2   force =     3.56116767    3.56116767   -0.00000000
     atom    5 type  2   force =     3.56077551   -3.56077551   -0.00033867
     atom    6 type  2   force =    -3.56077551    3.56077551    0.00033867
     The core correction contribution to forces
     atom    1 type  1   force =    -0.00000000   -0.00000000    0.00000000
     atom    2 type  1   force =     0.00000000    0.00000000    0.00000000
     atom    3 type  2   force =    -0.02046438   -0.02046438   -0.00000000
     atom    4 type  2   force =     0.02046438    0.02046438    0.00000000
     atom    5 type  2   force =     0.02042603   -0.02042603   -0.00003141
     atom    6 type  2   force =    -0.02042603    0.02042603    0.00003141
     The Hubbard contrib.    to forces
     atom    1 type  1   force =     0.00000000    0.00000000    0.00000000
     atom    2 type  1   force =     0.00000000    0.00000000    0.00000000
     atom    3 type  2   force =     0.00000000    0.00000000    0.00000000
     atom    4 type  2   force =     0.00000000    0.00000000    0.00000000
     atom    5 type  2   force =     0.00000000    0.00000000    0.00000000
     atom    6 type  2   force =     0.00000000    0.00000000    0.00000000
     The SCF correction term to forces
     atom    1 type  1   force =     0.00000000    0.00000000   -0.00000000
     atom    2 type  1   force =    -0.00000000   -0.00000000   -0.00000000
     atom    3 type  2   force =     0.00008286    0.00008286    0.00000000
     atom    4 type  2   force =    -0.00008286   -0.00008286   -0.00000000
     atom    5 type  2   force =    -0.00008286    0.00008286    0.00000000
     atom    6 type  2   force =     0.00008286   -0.00008286   -0.00000000

     Total force =     0.419009     Total SCF correction =     0.000234

     BFGS Geometry Optimization
     Energy error            =      0.0E+00 Ry
     Gradient error          =      1.5E-01 Ry/Bohr

     number of scf cycles    =   1
     number of bfgs steps    =   0

     energy             new  =    -731.4597925862 Ry

     new trust radius        =       0.2095045066 bohr
     new conv_thr            =       0.0000010000 Ry


ATOMIC_POSITIONS (crystal)
Au            0.0000000000        0.2500000000        0.2500000000
Au            0.0000000000       -0.2500000000       -0.2500000000
In           -0.5000000000        0.6427659636       -0.1427659636
In           -0.5000000000        0.3572340364        0.1427659636
In            0.2144690727        0.1427659636       -0.3572340364
In            0.7855309273       -0.1427659636       -0.6427659636



     Writing config-only to output data dir ./tmp/AuIn2_Relax.save/
     NEW-OLD atomic charge density approx. for the potential

     total cpu time spent up to now is      749.2 secs

     Self-consistent Calculation

     iteration #  1     ecut=   100.00 Ry     beta= 0.70
     Davidson diagonalization with overlap
     c_bands:  1 eigenvalues not converged
     c_bands:  2 eigenvalues not converged
     c_bands:  2 eigenvalues not converged
     c_bands:  1 eigenvalues not converged
     c_bands:  1 eigenvalues not converged
     c_bands:  1 eigenvalues not converged
     c_bands:  1 eigenvalues not converged
     c_bands:  1 eigenvalues not converged
     c_bands:  1 eigenvalues not converged
     c_bands:  1 eigenvalues not converged
     c_bands:  1 eigenvalues not converged
     c_bands:  1 eigenvalues not converged
     c_bands:  1 eigenvalues not converged
     c_bands:  1 eigenvalues not converged
     c_bands:  1 eigenvalues not converged
     c_bands:  1 eigenvalues not converged
     c_bands:  1 eigenvalues not converged
     c_bands:  1 eigenvalues not converged
     ethr =  1.00E-06,  avg # of iterations = 16.7

     total cpu time spent up to now is     1028.2 secs

     total energy              =    -731.56051600 Ry
     estimated scf accuracy    <       0.00127649 Ry

     iteration #  2     ecut=   100.00 Ry     beta= 0.70
     Davidson diagonalization with overlap
     ethr =  1.72E-06,  avg # of iterations =  3.7

     total cpu time spent up to now is     1099.3 secs

     total energy              =    -731.56088860 Ry
     estimated scf accuracy    <       0.00044241 Ry

     iteration #  3     ecut=   100.00 Ry     beta= 0.70
     Davidson diagonalization with overlap
     ethr =  5.98E-07,  avg # of iterations =  4.2

     total cpu time spent up to now is     1174.4 secs

     total energy              =    -731.56100236 Ry
     estimated scf accuracy    <       0.00004462 Ry

     iteration #  4     ecut=   100.00 Ry     beta= 0.70
     Davidson diagonalization with overlap
     ethr =  6.03E-08,  avg # of iterations =  4.4

     total cpu time spent up to now is     1246.7 secs

     total energy              =    -731.56101441 Ry
     estimated scf accuracy    <       0.00000261 Ry

     iteration #  5     ecut=   100.00 Ry     beta= 0.70
     Davidson diagonalization with overlap
     ethr =  3.53E-09,  avg # of iterations =  6.8

     total cpu time spent up to now is     1334.8 secs

     End of self-consistent calculation

     Number of k-points >= 100: set verbosity='high' to print the bands.

     highest occupied level (ev):    19.5790

!    total energy              =    -731.56101576 Ry
     estimated scf accuracy    <       0.00000041 Ry

     The total energy is the sum of the following terms:
     one-electron contribution =     -54.56919287 Ry
     hartree contribution      =     110.95477645 Ry
     xc contribution           =    -250.20519571 Ry
     ewald contribution        =    -537.74140363 Ry

     convergence has been achieved in   5 iterations

     Forces acting on atoms (cartesian axes, Ry/au):

     atom    1 type  1   force =     0.00000000    0.00000000   -0.00000000
     atom    2 type  1   force =     0.00000000    0.00000000   -0.00000000
     atom    3 type  2   force =     0.03428675    0.03428675    0.00000000
     atom    4 type  2   force =    -0.03428675   -0.03428675   -0.00000000
     atom    5 type  2   force =    -0.03428675    0.03428675   -0.00000000
     atom    6 type  2   force =     0.03428675   -0.03428675   -0.00000000
     The non-local contrib.  to forces
     atom    1 type  1   force =     0.00000000    0.00000000    0.00000000
     atom    2 type  1   force =     0.00000000    0.00000000    0.00000000
     atom    3 type  2   force =     0.15326915    0.15326915    0.00000000
     atom    4 type  2   force =    -0.15326915   -0.15326915    0.00000000
     atom    5 type  2   force =    -0.15326915    0.15326915    0.00000000
     atom    6 type  2   force =     0.15326915   -0.15326915   -0.00000000
     The ionic contribution  to forces
     atom    1 type  1   force =    -0.00002392   -0.00002392   -0.00000000
     atom    2 type  1   force =     0.00002392    0.00002392    0.00000000
     atom    3 type  2   force =     0.71269434    0.71269434    0.00000000
     atom    4 type  2   force =    -0.71269434   -0.71269434   -0.00000000
     atom    5 type  2   force =    -0.71280413    0.71280413   -0.00004470
     atom    6 type  2   force =     0.71280413   -0.71280413    0.00004470
     The local contribution  to forces
     atom    1 type  1   force =     0.00000000    0.00000000    0.00000000
     atom    2 type  1   force =    -0.00000000   -0.00000000    0.00000000
     atom    3 type  2   force =    -0.82175325   -0.82175325    0.00000000
     atom    4 type  2   force =     0.82175325    0.82175325    0.00000000
     atom    5 type  2   force =     0.82134887   -0.82134887   -0.00033816
     atom    6 type  2   force =    -0.82134887    0.82134887    0.00033816
     The core correction contribution to forces
     atom    1 type  1   force =    -0.00000000   -0.00000000    0.00000000
     atom    2 type  1   force =     0.00000000    0.00000000   -0.00000000
     atom    3 type  2   force =    -0.00968202   -0.00968202   -0.00000000
     atom    4 type  2   force =     0.00968202    0.00968202    0.00000000
     atom    5 type  2   force =     0.00964357   -0.00964357   -0.00003138
     atom    6 type  2   force =    -0.00964357    0.00964357    0.00003138
     The Hubbard contrib.    to forces
     atom    1 type  1   force =     0.00000000    0.00000000    0.00000000
     atom    2 type  1   force =     0.00000000    0.00000000    0.00000000
     atom    3 type  2   force =     0.00000000    0.00000000    0.00000000
     atom    4 type  2   force =     0.00000000    0.00000000    0.00000000
     atom    5 type  2   force =     0.00000000    0.00000000    0.00000000
     atom    6 type  2   force =     0.00000000    0.00000000    0.00000000
     The SCF correction term to forces
     atom    1 type  1   force =     0.00000001    0.00000001   -0.00000000
     atom    2 type  1   force =    -0.00000001   -0.00000001    0.00000000
     atom    3 type  2   force =    -0.00051776   -0.00051776   -0.00000000
     atom    4 type  2   force =     0.00051776    0.00051776    0.00000000
     atom    5 type  2   force =     0.00051780   -0.00051780    0.00000004
     atom    6 type  2   force =    -0.00051780    0.00051780   -0.00000004

     Total force =     0.096978     Total SCF correction =     0.001465
     Energy error            =      1.0E-01 Ry
     Gradient error          =      3.4E-02 Ry/Bohr

     number of scf cycles    =   2
     number of bfgs steps    =   1

     energy             old  =    -731.4597925862 Ry
     energy             new  =    -731.5610157594 Ry

     CASE: energy            _new < energy            _old

     new trust radius        =       0.0630908643 bohr
     new conv_thr            =       0.0000000343 Ry


ATOMIC_POSITIONS (crystal)
Au            0.0000000000        0.2500000000        0.2500000000
Au            0.0000000000       -0.2500000000       -0.2500000000
In           -0.5000000000        0.6464898899       -0.1464898899
In           -0.5000000000        0.3535101101        0.1464898899
In            0.2070212202        0.1464898899       -0.3535101101
In            0.7929787798       -0.1464898899       -0.6464898899



     Writing config-only to output data dir ./tmp/AuIn2_Relax.save/
     NEW-OLD atomic charge density approx. for the potential

     total cpu time spent up to now is     1348.2 secs

     Self-consistent Calculation

     iteration #  1     ecut=   100.00 Ry     beta= 0.70
     Davidson diagonalization with overlap
     c_bands:  1 eigenvalues not converged
     c_bands:  1 eigenvalues not converged
     ethr =  1.00E-06,  avg # of iterations = 11.6

     total cpu time spent up to now is     1535.6 secs

     total energy              =    -731.56945648 Ry
     estimated scf accuracy    <       0.00009163 Ry

     iteration #  2     ecut=   100.00 Ry     beta= 0.70
     Davidson diagonalization with overlap
     ethr =  1.24E-07,  avg # of iterations =  6.2

     total cpu time spent up to now is     1616.4 secs

     total energy              =    -731.56948919 Ry
     estimated scf accuracy    <       0.00003627 Ry

     iteration #  3     ecut=   100.00 Ry     beta= 0.70
     Davidson diagonalization with overlap
     ethr =  4.90E-08,  avg # of iterations =  4.6

     total cpu time spent up to now is     1687.2 secs

     total energy              =    -731.56950150 Ry
     estimated scf accuracy    <       0.00000510 Ry

     iteration #  4     ecut=   100.00 Ry     beta= 0.70
     Davidson diagonalization with overlap
     ethr =  6.89E-09,  avg # of iterations =  4.8

     total cpu time spent up to now is     1761.8 secs

     total energy              =    -731.56950314 Ry
     estimated scf accuracy    <       0.00000032 Ry

     iteration #  5     ecut=   100.00 Ry     beta= 0.70
     Davidson diagonalization with overlap
     ethr =  4.26E-10,  avg # of iterations =  6.9

     total cpu time spent up to now is     1864.1 secs

     End of self-consistent calculation

     Number of k-points >= 100: set verbosity='high' to print the bands.

     highest occupied level (ev):    19.7071

!    total energy              =    -731.56950343 Ry
     estimated scf accuracy    <       0.00000003 Ry

     The total energy is the sum of the following terms:
     one-electron contribution =     -54.36442700 Ry
     hartree contribution      =     110.86787459 Ry
     xc contribution           =    -250.20683197 Ry
     ewald contribution        =    -537.86611905 Ry

     convergence has been achieved in   5 iterations

     Forces acting on atoms (cartesian axes, Ry/au):

     atom    1 type  1   force =     0.00000000    0.00000000   -0.00000000
     atom    2 type  1   force =     0.00000000    0.00000000   -0.00000000
     atom    3 type  2   force =     0.01238456    0.01238456    0.00000000
     atom    4 type  2   force =    -0.01238456   -0.01238456    0.00000000
     atom    5 type  2   force =    -0.01238456    0.01238456    0.00000000
     atom    6 type  2   force =     0.01238456   -0.01238456    0.00000000
     The non-local contrib.  to forces
     atom    1 type  1   force =     0.00000000    0.00000000    0.00000000
     atom    2 type  1   force =     0.00000000    0.00000000    0.00000000
     atom    3 type  2   force =     0.14552036    0.14552036   -0.00000000
     atom    4 type  2   force =    -0.14552036   -0.14552036   -0.00000000
     atom    5 type  2   force =    -0.14552036    0.14552036   -0.00000000
     atom    6 type  2   force =     0.14552036   -0.14552036    0.00000000
     The ionic contribution  to forces
     atom    1 type  1   force =    -0.00002459   -0.00002459   -0.00000000
     atom    2 type  1   force =     0.00002459    0.00002459    0.00000000
     atom    3 type  2   force =    -0.00377439   -0.00377439   -0.00000000
     atom    4 type  2   force =     0.00377439    0.00377439    0.00000000
     atom    5 type  2   force =     0.00367080   -0.00367080   -0.00004715
     atom    6 type  2   force =    -0.00367080    0.00367080    0.00004715
     The local contribution  to forces
     atom    1 type  1   force =    -0.00000000    0.00000000   -0.00000000
     atom    2 type  1   force =     0.00000000   -0.00000000    0.00000000
     atom    3 type  2   force =    -0.12240742   -0.12240742    0.00000000
     atom    4 type  2   force =     0.12240742    0.12240742    0.00000000
     atom    5 type  2   force =     0.12199956   -0.12199956   -0.00033791
     atom    6 type  2   force =    -0.12199956    0.12199956    0.00033791
     The core correction contribution to forces
     atom    1 type  1   force =     0.00000000    0.00000000   -0.00000000
     atom    2 type  1   force =    -0.00000000   -0.00000000    0.00000000
     atom    3 type  2   force =    -0.00715604   -0.00715604    0.00000000
     atom    4 type  2   force =     0.00715604    0.00715604   -0.00000000
     atom    5 type  2   force =     0.00711757   -0.00711757   -0.00003138
     atom    6 type  2   force =    -0.00711757    0.00711757    0.00003138
     The Hubbard contrib.    to forces
     atom    1 type  1   force =     0.00000000    0.00000000    0.00000000
     atom    2 type  1   force =     0.00000000    0.00000000    0.00000000
     atom    3 type  2   force =     0.00000000    0.00000000    0.00000000
     atom    4 type  2   force =     0.00000000    0.00000000    0.00000000
     atom    5 type  2   force =     0.00000000    0.00000000    0.00000000
     atom    6 type  2   force =     0.00000000    0.00000000    0.00000000
     The SCF correction term to forces
     atom    1 type  1   force =     0.00000000    0.00000000    0.00000000
     atom    2 type  1   force =    -0.00000000   -0.00000000   -0.00000000
     atom    3 type  2   force =    -0.00007292   -0.00007292   -0.00000000
     atom    4 type  2   force =     0.00007292    0.00007292    0.00000000
     atom    5 type  2   force =     0.00007292   -0.00007292    0.00000001
     atom    6 type  2   force =    -0.00007292    0.00007292   -0.00000001

     Total force =     0.035029     Total SCF correction =     0.000206
     Energy error            =      8.5E-03 Ry
     Gradient error          =      1.2E-02 Ry/Bohr

     number of scf cycles    =   3
     number of bfgs steps    =   2

     energy             old  =    -731.5610157594 Ry
     energy             new  =    -731.5695034330 Ry

     CASE: energy            _new < energy            _old

     new trust radius        =       0.0356746152 bohr
     new conv_thr            =       0.0000000124 Ry


ATOMIC_POSITIONS (crystal)
Au            0.0000000000        0.2500000000        0.2500000000
Au            0.0000000000       -0.2500000000       -0.2500000000
In           -0.5000000000        0.6485955773       -0.1485955773
In           -0.5000000000        0.3514044227        0.1485955773
In            0.2028098455        0.1485955773       -0.3514044227
In            0.7971901545       -0.1485955773       -0.6485955773



     Writing config-only to output data dir ./tmp/AuIn2_Relax.save/
     NEW-OLD atomic charge density approx. for the potential

     total cpu time spent up to now is     1877.5 secs

     Self-consistent Calculation

     iteration #  1     ecut=   100.00 Ry     beta= 0.70
     Davidson diagonalization with overlap
     ethr =  1.00E-06,  avg # of iterations =  9.2

     Threshold (ethr) on eigenvalues was too large:
     Diagonalizing with lowered threshold

     Davidson diagonalization with overlap
     ethr =  3.66E-08,  avg # of iterations =  7.6

     total cpu time spent up to now is     2131.2 secs

     total energy              =    -731.57089460 Ry
     estimated scf accuracy    <       0.00002488 Ry

     iteration #  2     ecut=   100.00 Ry     beta= 0.70
     Davidson diagonalization with overlap
     ethr =  3.36E-08,  avg # of iterations =  3.0

     total cpu time spent up to now is     2200.3 secs

     total energy              =    -731.57089817 Ry
     estimated scf accuracy    <       0.00000509 Ry

     iteration #  3     ecut=   100.00 Ry     beta= 0.70
     Davidson diagonalization with overlap
     ethr =  6.88E-09,  avg # of iterations =  4.1

     total cpu time spent up to now is     2272.3 secs

     total energy              =    -731.57089960 Ry
     estimated scf accuracy    <       0.00000115 Ry

     iteration #  4     ecut=   100.00 Ry     beta= 0.70
     Davidson diagonalization with overlap
     ethr =  1.55E-09,  avg # of iterations =  4.9

     total cpu time spent up to now is     2336.5 secs

     total energy              =    -731.57089986 Ry
     estimated scf accuracy    <       0.00000004 Ry

     iteration #  5     ecut=   100.00 Ry     beta= 0.70
     Davidson diagonalization with overlap
     c_bands:  1 eigenvalues not converged
     c_bands:  1 eigenvalues not converged
     c_bands:  1 eigenvalues not converged
     c_bands:  1 eigenvalues not converged
     ethr =  6.01E-11,  avg # of iterations =  7.3

     total cpu time spent up to now is     2436.4 secs

     End of self-consistent calculation

     Number of k-points >= 100: set verbosity='high' to print the bands.

     highest occupied level (ev):    19.7831

!    total energy              =    -731.57089992 Ry
     estimated scf accuracy    <          5.3E-09 Ry

     The total energy is the sum of the following terms:
     one-electron contribution =     -54.44657838 Ry
     hartree contribution      =     110.91252832 Ry
     xc contribution           =    -250.20999592 Ry
     ewald contribution        =    -537.82685394 Ry

     convergence has been achieved in   5 iterations

     Forces acting on atoms (cartesian axes, Ry/au):

     atom    1 type  1   force =     0.00000000    0.00000000   -0.00000000
     atom    2 type  1   force =    -0.00000000    0.00000000    0.00000000
     atom    3 type  2   force =     0.00148055    0.00148055    0.00000000
     atom    4 type  2   force =    -0.00148055   -0.00148055    0.00000000
     atom    5 type  2   force =    -0.00148055    0.00148055    0.00000000
     atom    6 type  2   force =     0.00148055   -0.00148055    0.00000000
     The non-local contrib.  to forces
     atom    1 type  1   force =     0.00000000    0.00000000    0.00000000
     atom    2 type  1   force =     0.00000000    0.00000000    0.00000000
     atom    3 type  2   force =     0.14141598    0.14141598    0.00000000
     atom    4 type  2   force =    -0.14141598   -0.14141598    0.00000000
     atom    5 type  2   force =    -0.14141598    0.14141598   -0.00000000
     atom    6 type  2   force =     0.14141598   -0.14141598    0.00000000
     The ionic contribution  to forces
     atom    1 type  1   force =    -0.00002496   -0.00002496    0.00000000
     atom    2 type  1   force =     0.00002496    0.00002496   -0.00000000
     atom    3 type  2   force =    -0.38230777   -0.38230777    0.00000000
     atom    4 type  2   force =     0.38230777    0.38230777   -0.00000000
     atom    5 type  2   force =     0.38220753   -0.38220753   -0.00004854
     atom    6 type  2   force =    -0.38220753    0.38220753    0.00004854
     The local contribution  to forces
     atom    1 type  1   force =    -0.00000000    0.00000000   -0.00000000
     atom    2 type  1   force =    -0.00000000   -0.00000000    0.00000000
     atom    3 type  2   force =     0.24799238    0.24799238   -0.00000000
     atom    4 type  2   force =    -0.24799238   -0.24799238    0.00000000
     atom    5 type  2   force =    -0.24840218    0.24840218   -0.00033775
     atom    6 type  2   force =     0.24840218   -0.24840218    0.00033775
     The core correction contribution to forces
     atom    1 type  1   force =     0.00000000    0.00000000    0.00000000
     atom    2 type  1   force =    -0.00000000   -0.00000000    0.00000000
     atom    3 type  2   force =    -0.00587459   -0.00587459   -0.00000000
     atom    4 type  2   force =     0.00587459    0.00587459    0.00000000
     atom    5 type  2   force =     0.00583611   -0.00583611   -0.00003137
     atom    6 type  2   force =    -0.00583611    0.00583611    0.00003137
     The Hubbard contrib.    to forces
     atom    1 type  1   force =     0.00000000    0.00000000    0.00000000
     atom    2 type  1   force =     0.00000000    0.00000000    0.00000000
     atom    3 type  2   force =     0.00000000    0.00000000    0.00000000
     atom    4 type  2   force =     0.00000000    0.00000000    0.00000000
     atom    5 type  2   force =     0.00000000    0.00000000    0.00000000
     atom    6 type  2   force =     0.00000000    0.00000000    0.00000000
     The SCF correction term to forces
     atom    1 type  1   force =     0.00000000    0.00000000   -0.00000000
     atom    2 type  1   force =    -0.00000000   -0.00000000    0.00000000
     atom    3 type  2   force =    -0.00001971   -0.00001971    0.00000000
     atom    4 type  2   force =     0.00001971    0.00001971   -0.00000000
     atom    5 type  2   force =     0.00001971   -0.00001971    0.00000000
     atom    6 type  2   force =    -0.00001971    0.00001971   -0.00000000

     Total force =     0.004188     Total SCF correction =     0.000056
     Energy error            =      1.4E-03 Ry
     Gradient error          =      1.5E-03 Ry/Bohr

     number of scf cycles    =   4
     number of bfgs steps    =   3

     energy             old  =    -731.5695034330 Ry
     energy             new  =    -731.5708999248 Ry

     CASE: energy            _new < energy            _old

     new trust radius        =       0.0048439059 bohr
     new conv_thr            =       0.0000000100 Ry


ATOMIC_POSITIONS (crystal)
Au            0.0000000000        0.2500000000        0.2500000000
Au            0.0000000000       -0.2500000000       -0.2500000000
In           -0.5000000000        0.6488814879       -0.1488814879
In           -0.5000000000        0.3511185121        0.1488814879
In            0.2022380242        0.1488814879       -0.3511185121
In            0.7977619758       -0.1488814879       -0.6488814879



     Writing config-only to output data dir ./tmp/AuIn2_Relax.save/
     NEW-OLD atomic charge density approx. for the potential

     total cpu time spent up to now is     2450.2 secs

     Self-consistent Calculation

     iteration #  1     ecut=   100.00 Ry     beta= 0.70
     Davidson diagonalization with overlap
     ethr =  1.00E-06,  avg # of iterations =  5.0

     Threshold (ethr) on eigenvalues was too large:
     Diagonalizing with lowered threshold

     Davidson diagonalization with overlap
     ethr =  1.93E-09,  avg # of iterations =  9.1

     total cpu time spent up to now is     2656.0 secs

     total energy              =    -731.57092235 Ry
     estimated scf accuracy    <       0.00000049 Ry

     iteration #  2     ecut=   100.00 Ry     beta= 0.70
     Davidson diagonalization with overlap
     ethr =  6.58E-10,  avg # of iterations =  3.5

     total cpu time spent up to now is     2726.9 secs

     total energy              =    -731.57092244 Ry
     estimated scf accuracy    <       0.00000012 Ry

     iteration #  3     ecut=   100.00 Ry     beta= 0.70
     Davidson diagonalization with overlap
     ethr =  1.66E-10,  avg # of iterations =  4.6

     total cpu time spent up to now is     2800.4 secs

     total energy              =    -731.57092248 Ry
     estimated scf accuracy    <       0.00000002 Ry

     iteration #  4     ecut=   100.00 Ry     beta= 0.70
     Davidson diagonalization with overlap
     c_bands:  1 eigenvalues not converged
     c_bands:  1 eigenvalues not converged
     ethr =  3.12E-11,  avg # of iterations =  5.1

     total cpu time spent up to now is     2873.5 secs

     End of self-consistent calculation

     Number of k-points >= 100: set verbosity='high' to print the bands.

     highest occupied level (ev):    19.7936

!    total energy              =    -731.57092250 Ry
     estimated scf accuracy    <          8.1E-10 Ry

     The total energy is the sum of the following terms:
     one-electron contribution =     -54.46839847 Ry
     hartree contribution      =     110.92374379 Ry
     xc contribution           =    -250.21057325 Ry
     ewald contribution        =    -537.81569456 Ry

     convergence has been achieved in   4 iterations

     Forces acting on atoms (cartesian axes, Ry/au):

     atom    1 type  1   force =    -0.00000000    0.00000000    0.00000000
     atom    2 type  1   force =    -0.00000000    0.00000000    0.00000000
     atom    3 type  2   force =     0.00011613    0.00011613   -0.00000000
     atom    4 type  2   force =    -0.00011613   -0.00011613   -0.00000000
     atom    5 type  2   force =    -0.00011613    0.00011613   -0.00000000
     atom    6 type  2   force =     0.00011613   -0.00011613    0.00000000
     The non-local contrib.  to forces
     atom    1 type  1   force =    -0.00000000    0.00000000    0.00000000
     atom    2 type  1   force =     0.00000000    0.00000000   -0.00000000
     atom    3 type  2   force =     0.14089280    0.14089280    0.00000000
     atom    4 type  2   force =    -0.14089280   -0.14089280    0.00000000
     atom    5 type  2   force =    -0.14089280    0.14089280   -0.00000000
     atom    6 type  2   force =     0.14089280   -0.14089280    0.00000000
     The ionic contribution  to forces
     atom    1 type  1   force =    -0.00002502   -0.00002502    0.00000000
     atom    2 type  1   force =     0.00002502    0.00002502   -0.00000000
     atom    3 type  2   force =    -0.43224996   -0.43224996    0.00000000
     atom    4 type  2   force =     0.43224996    0.43224996   -0.00000000
     atom    5 type  2   force =     0.43215016   -0.43215016   -0.00004873
     atom    6 type  2   force =    -0.43215016    0.43215016    0.00004873
     The local contribution  to forces
     atom    1 type  1   force =    -0.00000000    0.00000000    0.00000000
     atom    2 type  1   force =     0.00000000   -0.00000000    0.00000000
     atom    3 type  2   force =     0.29689216    0.29689216    0.00000000
     atom    4 type  2   force =    -0.29689216   -0.29689216   -0.00000000
     atom    5 type  2   force =    -0.29730222    0.29730222   -0.00033773
     atom    6 type  2   force =     0.29730222   -0.29730222    0.00033773
     The core correction contribution to forces
     atom    1 type  1   force =     0.00000000    0.00000000   -0.00000000
     atom    2 type  1   force =    -0.00000000   -0.00000000    0.00000000
     atom    3 type  2   force =    -0.00570538   -0.00570538    0.00000000
     atom    4 type  2   force =     0.00570538    0.00570538   -0.00000000
     atom    5 type  2   force =     0.00566690   -0.00566690   -0.00003137
     atom    6 type  2   force =    -0.00566690    0.00566690    0.00003137
     The Hubbard contrib.    to forces
     atom    1 type  1   force =     0.00000000    0.00000000    0.00000000
     atom    2 type  1   force =     0.00000000    0.00000000    0.00000000
     atom    3 type  2   force =     0.00000000    0.00000000    0.00000000
     atom    4 type  2   force =     0.00000000    0.00000000    0.00000000
     atom    5 type  2   force =     0.00000000    0.00000000    0.00000000
     atom    6 type  2   force =     0.00000000    0.00000000    0.00000000
     The SCF correction term to forces
     atom    1 type  1   force =     0.00000000    0.00000000   -0.00000000
     atom    2 type  1   force =    -0.00000000   -0.00000000    0.00000000
     atom    3 type  2   force =     0.00001233    0.00001233   -0.00000000
     atom    4 type  2   force =    -0.00001233   -0.00001233    0.00000000
     atom    5 type  2   force =    -0.00001234    0.00001234    0.00000000
     atom    6 type  2   force =     0.00001234   -0.00001234   -0.00000000

     Total force =     0.000328     Total SCF correction =     0.000035
     SCF correction compared to forces is large: reduce conv_thr to get better values
     Energy error            =      2.3E-05 Ry
     Gradient error          =      1.2E-04 Ry/Bohr

     bfgs converged in   5 scf cycles and   4 bfgs steps
     (criteria: energy <  1.0E-04 Ry, force <  1.0E-02 Ry/Bohr)

     End of BFGS Geometry Optimization

     Final energy             =    -731.5709224975 Ry

     File ./tmp/AuIn2_Relax.bfgs deleted, as requested
Begin final coordinates

ATOMIC_POSITIONS (crystal)
Au            0.0000000000        0.2500000000        0.2500000000
Au            0.0000000000       -0.2500000000       -0.2500000000
In           -0.5000000000        0.6488814879       -0.1488814879
In           -0.5000000000        0.3511185121        0.1488814879
In            0.2022380242        0.1488814879       -0.3511185121
In            0.7977619758       -0.1488814879       -0.6488814879
End final coordinates



     Writing all to output data dir ./tmp/AuIn2_Relax.save/

     init_run     :      8.68s CPU     25.69s WALL (       1 calls)
     electrons    :    893.88s CPU   2791.72s WALL (       5 calls)
     update_pot   :      1.86s CPU      5.18s WALL (       4 calls)
     forces       :     17.33s CPU     60.49s WALL (       5 calls)

     Called by init_run:
     wfcinit      :      7.53s CPU     22.63s WALL (       1 calls)
     potinit      :      0.18s CPU      0.45s WALL (       1 calls)
     hinit0       :      0.52s CPU      1.42s WALL (       1 calls)

     Called by electrons:
     c_bands      :    815.80s CPU   2555.53s WALL (      31 calls)
     sum_band     :     75.69s CPU    228.76s WALL (      31 calls)
     v_of_rho     :      0.62s CPU      1.95s WALL (      33 calls)
     newd         :      2.02s CPU      5.74s WALL (      33 calls)
     mix_rho      :      0.07s CPU      0.30s WALL (      31 calls)

     Called by c_bands:
     init_us_2    :      4.37s CPU      5.57s WALL (    6936 calls)
     init_us_2:cp :      4.34s CPU      5.55s WALL (    6936 calls)
     cegterg      :    799.67s CPU   2503.55s WALL (    3162 calls)

     Called by *egterg:
     cdiaghg      :     64.40s CPU    228.31s WALL (   20975 calls)
     h_psi        :    460.46s CPU   1456.83s WALL (   21791 calls)
     s_psi        :     41.08s CPU     60.41s WALL (   21791 calls)
     g_psi        :      1.04s CPU      2.19s WALL (   18527 calls)

     Called by h_psi:
     h_psi:calbec :     97.10s CPU    352.38s WALL (   21791 calls)
     vloc_psi     :    319.26s CPU   1049.02s WALL (   21791 calls)
     add_vuspsi   :     42.06s CPU     52.75s WALL (   21791 calls)

     General routines
     calbec       :    131.97s CPU    459.57s WALL (   26993 calls)
     fft          :      0.76s CPU      3.74s WALL (     425 calls)
     ffts         :      0.04s CPU      0.41s WALL (      31 calls)
     fftw         :    316.14s CPU   1146.92s WALL ( 1030596 calls)

     Parallel routines

     PWSCF        :  15m24.91s CPU  48m21.16s WALL


   This run was terminated on:   6:59:13   8May2023            

=------------------------------------------------------------------------------=
   JOB DONE.
=------------------------------------------------------------------------------=
Note: The following floating-point exceptions are signalling: IEEE_INVALID_FLAG
