
     Program PWSCF v.7.2 starts on 11May2023 at 22:29: 2 

     This program is part of the open-source Quantum ESPRESSO suite
     for quantum simulation of materials; please cite
         "P. Giannozzi et al., J. Phys.:Condens. Matter 21 395502 (2009);
         "P. Giannozzi et al., J. Phys.:Condens. Matter 29 465901 (2017);
         "P. Giannozzi et al., J. Chem. Phys. 152 154105 (2020);
          URL http://www.quantum-espresso.org", 
     in publications or presentations arising from this work. More details at
     http://www.quantum-espresso.org/quote

     Parallel version (MPI), running on    20 processors

     MPI processes distributed on     1 nodes
     1553 MiB available memory on the printing compute node when the environment starts

     Reading input from ./DFTData/CuIn2/relax/Relax_V700.00_1.in
Warning: card &CELL ignored
Warning: card / ignored

     Current dimensions of program PWSCF are:
     Max number of different atomic species (ntypx) = 10
     Max number of k-points (npk) =  40000
     Max angular momentum in pseudopotentials (lmaxx) =  4
     file Cu.pbe-dn-rrkjus_psl.1.0.0.UPF: wavefunction(s)  3D renormalized
     file In.pbe-dn-rrkjus_psl.1.0.0.UPF: wavefunction(s)  5S 4D renormalized

     R & G space division:  proc/nbgrp/npool/nimage =      20
     Subspace diagonalization in iterative solution of the eigenvalue problem:
     a serial algorithm will be used


     Parallelization info
     --------------------
     sticks:   dense  smooth     PW     G-vecs:    dense   smooth      PW
     Min         149     149     44                 4728     4728     769
     Max         150     150     45                 4729     4729     771
     Sum        2983    2983    887                94575    94575   15401

     Using Slab Decomposition



     bravais-lattice index     =            7
     lattice parameter (alat)  =      12.1233  a.u.
     unit-cell volume          =     700.0000 (a.u.)^3
     number of atoms/cell      =            6
     number of atomic types    =            2
     number of electrons       =        74.00
     number of Kohn-Sham states=           37
     kinetic-energy cutoff     =     100.0000  Ry
     charge density cutoff     =     400.0000  Ry
     scf convergence threshold =      1.0E-06
     mixing beta               =       0.7000
     number of iterations used =            8  plain     mixing
     energy convergence thresh.=      1.0E-06
     force convergence thresh. =      1.0E-02
     Exchange-correlation= PBE
                           (   1   4   3   4   0   0   0)
     nstep                     =           50


     celldm(1)=  12.123308  celldm(2)=   0.000000  celldm(3)=   0.785714
     celldm(4)=   0.000000  celldm(5)=   0.000000  celldm(6)=   0.000000

     crystal axes: (cart. coord. in units of alat)
               a(1) = (   0.500000  -0.500000   0.392857 )  
               a(2) = (   0.500000   0.500000   0.392857 )  
               a(3) = (  -0.500000  -0.500000   0.392857 )  

     reciprocal axes: (cart. coord. in units 2 pi/alat)
               b(1) = (  1.000000 -1.000000  0.000000 )  
               b(2) = (  0.000000  1.000000  1.272727 )  
               b(3) = ( -1.000000  0.000000  1.272727 )  


     PseudoPot. # 1 for Cu read from file:
     ./pseudos/Cu.pbe-dn-rrkjus_psl.1.0.0.UPF
     MD5 check sum: ba3d6c84e19846e79d48cdc68ff7152b
     Pseudo is Ultrasoft + core correction, Zval = 11.0
     Generated using &quot;atomic&quot; code by A. Dal Corso  v.6.3
     Using radial grid of 1199 points,  6 beta functions with: 
                l(1) =   0
                l(2) =   0
                l(3) =   1
                l(4) =   1
                l(5) =   2
                l(6) =   2
     Q(r) pseudized with 0 coefficients 


     PseudoPot. # 2 for In read from file:
     ./pseudos/In.pbe-dn-rrkjus_psl.1.0.0.UPF
     MD5 check sum: 7267d4f9f57825930b619e54710f1f3b
     Pseudo is Ultrasoft + core correction, Zval = 13.0
     Generated using &quot;atomic&quot; code by A. Dal Corso  v.6.3
     Using radial grid of 1241 points,  6 beta functions with: 
                l(1) =   0
                l(2) =   0
                l(3) =   1
                l(4) =   1
                l(5) =   2
                l(6) =   2
     Q(r) pseudized with 0 coefficients 


     atomic species   valence    mass     pseudopotential
        Cu            11.00    63.54600     Cu( 1.00)
        In            13.00   114.81800     In( 1.00)

     16 Sym. Ops., with inversion, found ( 8 have fractional translation)



   Cartesian axes

     site n.     atom                  positions (alat units)
         1           Cu  tau(   1) = (   0.0000000   0.0000000   0.1964286  )
         2           Cu  tau(   2) = (   0.0000000   0.0000000  -0.1964286  )
         3           In  tau(   3) = (   0.1581920   0.6581920   0.0000000  )
         4           In  tau(   4) = (  -0.1581920   0.3418080   0.0000000  )
         5           In  tau(   5) = (   0.3418085   0.1581915   0.0000004  )
         6           In  tau(   6) = (   0.6581915  -0.1581915  -0.0000004  )

     number of k points=   102

     Number of k-points >= 100: set verbosity='high' to print them.

     Dense  grid:    94575 G-vectors     FFT dimensions: (  64,  64,  64)

     Estimated max dynamical RAM per process >      55.98 MB

     Estimated total dynamical RAM >       1.09 GB

     Initial potential from superposition of free atoms

     starting charge      73.9847, renormalised to      74.0000
     Starting wfcs are   54 randomized atomic wfcs

     total cpu time spent up to now is       27.1 secs

     Self-consistent Calculation

     iteration #  1     ecut=   100.00 Ry     beta= 0.70
     Davidson diagonalization with overlap
     ethr =  1.00E-02,  avg # of iterations =  2.0

     Threshold (ethr) on eigenvalues was too large:
     Diagonalizing with lowered threshold

     Davidson diagonalization with overlap
     ethr =  1.07E-04,  avg # of iterations =  5.3

     total cpu time spent up to now is      150.5 secs

     total energy              =    -806.34847991 Ry
     estimated scf accuracy    <       0.12930321 Ry

     iteration #  2     ecut=   100.00 Ry     beta= 0.70
     Davidson diagonalization with overlap
     ethr =  1.75E-04,  avg # of iterations =  4.5

     total cpu time spent up to now is      225.5 secs

     total energy              =    -806.34332405 Ry
     estimated scf accuracy    <       0.19664713 Ry

     iteration #  3     ecut=   100.00 Ry     beta= 0.70
     Davidson diagonalization with overlap
     ethr =  1.75E-04,  avg # of iterations =  5.0

     total cpu time spent up to now is      290.0 secs

     total energy              =    -806.38231220 Ry
     estimated scf accuracy    <       0.08318546 Ry

     iteration #  4     ecut=   100.00 Ry     beta= 0.70
     Davidson diagonalization with overlap
     ethr =  1.12E-04,  avg # of iterations =  3.7

     total cpu time spent up to now is      346.4 secs

     total energy              =    -806.39405527 Ry
     estimated scf accuracy    <       0.00078945 Ry

     iteration #  5     ecut=   100.00 Ry     beta= 0.70
     Davidson diagonalization with overlap
     c_bands:  1 eigenvalues not converged
     c_bands:  1 eigenvalues not converged
     ethr =  1.07E-06,  avg # of iterations =  8.7

     total cpu time spent up to now is      458.7 secs

     total energy              =    -806.39567458 Ry
     estimated scf accuracy    <       0.00426201 Ry

     iteration #  6     ecut=   100.00 Ry     beta= 0.70
     Davidson diagonalization with overlap
     ethr =  1.07E-06,  avg # of iterations =  3.0

     total cpu time spent up to now is      513.2 secs

     total energy              =    -806.39510442 Ry
     estimated scf accuracy    <       0.00206417 Ry

     iteration #  7     ecut=   100.00 Ry     beta= 0.70
     Davidson diagonalization with overlap
     c_bands:  1 eigenvalues not converged
     ethr =  1.07E-06,  avg # of iterations =  5.8

     total cpu time spent up to now is      578.3 secs

     total energy              =    -806.39546468 Ry
     estimated scf accuracy    <       0.00000912 Ry

     iteration #  8     ecut=   100.00 Ry     beta= 0.70
     Davidson diagonalization with overlap
     c_bands:  1 eigenvalues not converged
     ethr =  1.23E-08,  avg # of iterations =  6.8

     total cpu time spent up to now is      651.6 secs

     total energy              =    -806.39548135 Ry
     estimated scf accuracy    <       0.00001732 Ry

     iteration #  9     ecut=   100.00 Ry     beta= 0.70
     Davidson diagonalization with overlap
     c_bands:  1 eigenvalues not converged
     ethr =  1.23E-08,  avg # of iterations =  1.7

     total cpu time spent up to now is      697.1 secs

     total energy              =    -806.39547809 Ry
     estimated scf accuracy    <       0.00001072 Ry

     iteration # 10     ecut=   100.00 Ry     beta= 0.70
     Davidson diagonalization with overlap
     ethr =  1.23E-08,  avg # of iterations =  5.4

     total cpu time spent up to now is      758.8 secs

     End of self-consistent calculation

     Number of k-points >= 100: set verbosity='high' to print the bands.

     highest occupied level (ev):    17.1640

!    total energy              =    -806.39548011 Ry
     estimated scf accuracy    <       0.00000059 Ry

     The total energy is the sum of the following terms:
     one-electron contribution =    -163.44416582 Ry
     hartree contribution      =     168.37926701 Ry
     xc contribution           =    -274.71778907 Ry
     ewald contribution        =    -536.61279224 Ry

     convergence has been achieved in  10 iterations

     Forces acting on atoms (cartesian axes, Ry/au):

     atom    1 type  1   force =    -0.00000000    0.00000000    0.00000000
     atom    2 type  1   force =     0.00000000    0.00000000   -0.00000000
     atom    3 type  2   force =     0.00085399    0.00085399    0.00000000
     atom    4 type  2   force =    -0.00085399   -0.00085399    0.00000000
     atom    5 type  2   force =    -0.00085399    0.00085399   -0.00000000
     atom    6 type  2   force =     0.00085399   -0.00085399   -0.00000000
     The non-local contrib.  to forces
     atom    1 type  1   force =     0.00000000    0.00000000   -0.00000000
     atom    2 type  1   force =    -0.00000000    0.00000000    0.00000000
     atom    3 type  2   force =     0.03765974    0.03765974    0.00000000
     atom    4 type  2   force =    -0.03765974   -0.03765974    0.00000000
     atom    5 type  2   force =    -0.03765974    0.03765974   -0.00000000
     atom    6 type  2   force =     0.03765974   -0.03765974   -0.00000000
     The ionic contribution  to forces
     atom    1 type  1   force =    -0.00002478   -0.00002478    0.00000000
     atom    2 type  1   force =     0.00002478    0.00002478   -0.00000000
     atom    3 type  2   force =    -1.99210281   -1.99210281    0.00000000
     atom    4 type  2   force =     1.99210281    1.99210281   -0.00000000
     atom    5 type  2   force =     1.99201894   -1.99201894   -0.00005500
     atom    6 type  2   force =    -1.99201894    1.99201894    0.00005500
     The local contribution  to forces
     atom    1 type  1   force =     0.00000000    0.00000000    0.00000000
     atom    2 type  1   force =    -0.00000000   -0.00000000   -0.00000000
     atom    3 type  2   force =     1.95657468    1.95657468    0.00000000
     atom    4 type  2   force =    -1.95657468   -1.95657468   -0.00000000
     atom    5 type  2   force =    -1.95699906    1.95699906   -0.00032775
     atom    6 type  2   force =     1.95699906   -1.95699906    0.00032775
     The core correction contribution to forces
     atom    1 type  1   force =    -0.00000000   -0.00000000    0.00000000
     atom    2 type  1   force =     0.00000000    0.00000000   -0.00000000
     atom    3 type  2   force =    -0.00078681   -0.00078681    0.00000000
     atom    4 type  2   force =     0.00078681    0.00078681   -0.00000000
     atom    5 type  2   force =     0.00074791   -0.00074791   -0.00003058
     atom    6 type  2   force =    -0.00074791    0.00074791    0.00003058
     The Hubbard contrib.    to forces
     atom    1 type  1   force =     0.00000000    0.00000000    0.00000000
     atom    2 type  1   force =     0.00000000    0.00000000    0.00000000
     atom    3 type  2   force =     0.00000000    0.00000000    0.00000000
     atom    4 type  2   force =     0.00000000    0.00000000    0.00000000
     atom    5 type  2   force =     0.00000000    0.00000000    0.00000000
     atom    6 type  2   force =     0.00000000    0.00000000    0.00000000
     The SCF correction term to forces
     atom    1 type  1   force =    -0.00000000   -0.00000000    0.00000000
     atom    2 type  1   force =     0.00000000    0.00000000   -0.00000000
     atom    3 type  2   force =    -0.00076438   -0.00076438   -0.00000000
     atom    4 type  2   force =     0.00076438    0.00076438    0.00000000
     atom    5 type  2   force =     0.00076437   -0.00076437   -0.00000001
     atom    6 type  2   force =    -0.00076437    0.00076437    0.00000001

     Total force =     0.002415     Total SCF correction =     0.002162
     SCF correction compared to forces is large: reduce conv_thr to get better values

     BFGS Geometry Optimization
     Energy error            =      0.0E+00 Ry
     Gradient error          =      8.5E-04 Ry/Bohr

     bfgs converged in   1 scf cycles and   0 bfgs steps
     (criteria: energy <  1.0E-06 Ry, force <  1.0E-02 Ry/Bohr)

     End of BFGS Geometry Optimization

     Final energy             =    -806.3954801118 Ry
Begin final coordinates

ATOMIC_POSITIONS (crystal)
Cu            0.0000000000        0.2500000000        0.2500000000
Cu            0.0000000000       -0.2500000000       -0.2500000000
In           -0.5000000000        0.6581920000       -0.1581920000
In           -0.5000000000        0.3418080000        0.1581920000
In            0.1836170000        0.1581920000       -0.3418080000
In            0.8163830000       -0.1581920000       -0.6581920000
End final coordinates



     Writing all to output data dir ./tmp/CuIn2_Relax.save/

     init_run     :      8.11s CPU     24.89s WALL (       1 calls)
     electrons    :    232.56s CPU    731.83s WALL (       1 calls)
     forces       :      3.50s CPU     11.71s WALL (       1 calls)

     Called by init_run:
     wfcinit      :      7.05s CPU     21.77s WALL (       1 calls)
     potinit      :      0.15s CPU      0.47s WALL (       1 calls)
     hinit0       :      0.48s CPU      1.43s WALL (       1 calls)

     Called by electrons:
     c_bands      :    207.06s CPU    654.37s WALL (      11 calls)
     sum_band     :     24.71s CPU     74.98s WALL (      11 calls)
     v_of_rho     :      0.17s CPU      0.60s WALL (      11 calls)
     newd         :      0.63s CPU      1.84s WALL (      11 calls)
     mix_rho      :      0.04s CPU      0.12s WALL (      11 calls)

     Called by c_bands:
     init_us_2    :      1.64s CPU      2.18s WALL (    2448 calls)
     init_us_2:cp :      1.63s CPU      2.18s WALL (    2448 calls)
     cegterg      :    201.44s CPU    636.10s WALL (    1122 calls)

     Called by *egterg:
     cdiaghg      :     17.66s CPU     60.72s WALL (    6314 calls)
     h_psi        :    119.70s CPU    380.34s WALL (    6518 calls)
     s_psi        :     10.99s CPU     16.82s WALL (    6518 calls)
     g_psi        :      0.24s CPU      0.45s WALL (    5294 calls)

     Called by h_psi:
     h_psi:calbec :     23.84s CPU     89.11s WALL (    6518 calls)
     vloc_psi     :     84.18s CPU    276.08s WALL (    6518 calls)
     add_vuspsi   :     11.19s CPU     14.55s WALL (    6518 calls)

     General routines
     calbec       :     32.91s CPU    115.78s WALL (    8048 calls)
     fft          :      0.25s CPU      1.11s WALL (     133 calls)
     ffts         :      0.01s CPU      0.09s WALL (      11 calls)
     fftw         :     85.94s CPU    312.15s WALL (  287624 calls)

     Parallel routines

     PWSCF        :   4m 6.92s CPU  13m 7.59s WALL


   This run was terminated on:  22:42:10  11May2023            

=------------------------------------------------------------------------------=
   JOB DONE.
=------------------------------------------------------------------------------=
Note: The following floating-point exceptions are signalling: IEEE_INVALID_FLAG
