
     Program PWSCF v.7.2 starts on 12May2023 at  0:15:17 

     This program is part of the open-source Quantum ESPRESSO suite
     for quantum simulation of materials; please cite
         "P. Giannozzi et al., J. Phys.:Condens. Matter 21 395502 (2009);
         "P. Giannozzi et al., J. Phys.:Condens. Matter 29 465901 (2017);
         "P. Giannozzi et al., J. Chem. Phys. 152 154105 (2020);
          URL http://www.quantum-espresso.org", 
     in publications or presentations arising from this work. More details at
     http://www.quantum-espresso.org/quote

     Parallel version (MPI), running on    20 processors

     MPI processes distributed on     1 nodes
     2017 MiB available memory on the printing compute node when the environment starts

     Reading input from ./DFTData/CuIn2/relax/Relax_V720.00_0.in
Warning: card &CELL ignored
Warning: card / ignored

     Current dimensions of program PWSCF are:
     Max number of different atomic species (ntypx) = 10
     Max number of k-points (npk) =  40000
     Max angular momentum in pseudopotentials (lmaxx) =  4
     file Cu.pbe-dn-rrkjus_psl.1.0.0.UPF: wavefunction(s)  3D renormalized
     file In.pbe-dn-rrkjus_psl.1.0.0.UPF: wavefunction(s)  5S 4D renormalized

     R & G space division:  proc/nbgrp/npool/nimage =      20
     Subspace diagonalization in iterative solution of the eigenvalue problem:
     a serial algorithm will be used


     Parallelization info
     --------------------
     sticks:   dense  smooth     PW     G-vecs:    dense   smooth      PW
     Min         151     151     45                 4868     4868     793
     Max         152     152     46                 4872     4872     795
     Sum        3035    3035    907                97407    97407   15869

     Using Slab Decomposition



     bravais-lattice index     =            7
     lattice parameter (alat)  =      12.2377  a.u.
     unit-cell volume          =     720.0000 (a.u.)^3
     number of atoms/cell      =            6
     number of atomic types    =            2
     number of electrons       =        74.00
     number of Kohn-Sham states=           37
     kinetic-energy cutoff     =     100.0000  Ry
     charge density cutoff     =     400.0000  Ry
     scf convergence threshold =      1.0E-06
     mixing beta               =       0.7000
     number of iterations used =            8  plain     mixing
     energy convergence thresh.=      1.0E-06
     force convergence thresh. =      1.0E-02
     Exchange-correlation= PBE
                           (   1   4   3   4   0   0   0)
     nstep                     =           50


     celldm(1)=  12.237685  celldm(2)=   0.000000  celldm(3)=   0.785714
     celldm(4)=   0.000000  celldm(5)=   0.000000  celldm(6)=   0.000000

     crystal axes: (cart. coord. in units of alat)
               a(1) = (   0.500000  -0.500000   0.392857 )  
               a(2) = (   0.500000   0.500000   0.392857 )  
               a(3) = (  -0.500000  -0.500000   0.392857 )  

     reciprocal axes: (cart. coord. in units 2 pi/alat)
               b(1) = (  1.000000 -1.000000  0.000000 )  
               b(2) = (  0.000000  1.000000  1.272727 )  
               b(3) = ( -1.000000  0.000000  1.272727 )  


     PseudoPot. # 1 for Cu read from file:
     ./pseudos/Cu.pbe-dn-rrkjus_psl.1.0.0.UPF
     MD5 check sum: ba3d6c84e19846e79d48cdc68ff7152b
     Pseudo is Ultrasoft + core correction, Zval = 11.0
     Generated using &quot;atomic&quot; code by A. Dal Corso  v.6.3
     Using radial grid of 1199 points,  6 beta functions with: 
                l(1) =   0
                l(2) =   0
                l(3) =   1
                l(4) =   1
                l(5) =   2
                l(6) =   2
     Q(r) pseudized with 0 coefficients 


     PseudoPot. # 2 for In read from file:
     ./pseudos/In.pbe-dn-rrkjus_psl.1.0.0.UPF
     MD5 check sum: 7267d4f9f57825930b619e54710f1f3b
     Pseudo is Ultrasoft + core correction, Zval = 13.0
     Generated using &quot;atomic&quot; code by A. Dal Corso  v.6.3
     Using radial grid of 1241 points,  6 beta functions with: 
                l(1) =   0
                l(2) =   0
                l(3) =   1
                l(4) =   1
                l(5) =   2
                l(6) =   2
     Q(r) pseudized with 0 coefficients 


     atomic species   valence    mass     pseudopotential
        Cu            11.00    63.54600     Cu( 1.00)
        In            13.00   114.81800     In( 1.00)

     16 Sym. Ops., with inversion, found ( 8 have fractional translation)



   Cartesian axes

     site n.     atom                  positions (alat units)
         1           Cu  tau(   1) = (   0.0000000   0.0000000   0.1964286  )
         2           Cu  tau(   2) = (   0.0000000   0.0000000  -0.1964286  )
         3           In  tau(   3) = (   0.1581920   0.6581920  -0.0000000  )
         4           In  tau(   4) = (  -0.1581920   0.3418080  -0.0000000  )
         5           In  tau(   5) = (   0.3418085   0.1581915   0.0000004  )
         6           In  tau(   6) = (   0.6581915  -0.1581915  -0.0000004  )

     number of k points=   102

     Number of k-points >= 100: set verbosity='high' to print them.

     Dense  grid:    97407 G-vectors     FFT dimensions: (  64,  64,  64)

     Estimated max dynamical RAM per process >      57.43 MB

     Estimated total dynamical RAM >       1.12 GB

     Initial potential from superposition of free atoms

     starting charge      73.9847, renormalised to      74.0000
     Starting wfcs are   54 randomized atomic wfcs

     total cpu time spent up to now is       29.4 secs

     Self-consistent Calculation

     iteration #  1     ecut=   100.00 Ry     beta= 0.70
     Davidson diagonalization with overlap
     ethr =  1.00E-02,  avg # of iterations =  2.0

     Threshold (ethr) on eigenvalues was too large:
     Diagonalizing with lowered threshold

     Davidson diagonalization with overlap
     ethr =  9.90E-05,  avg # of iterations =  5.4

     total cpu time spent up to now is      159.7 secs

     total energy              =    -806.37312803 Ry
     estimated scf accuracy    <       0.12098414 Ry

     iteration #  2     ecut=   100.00 Ry     beta= 0.70
     Davidson diagonalization with overlap
     ethr =  1.63E-04,  avg # of iterations =  4.4

     total cpu time spent up to now is      236.1 secs

     total energy              =    -806.36915314 Ry
     estimated scf accuracy    <       0.17535902 Ry

     iteration #  3     ecut=   100.00 Ry     beta= 0.70
     Davidson diagonalization with overlap
     ethr =  1.63E-04,  avg # of iterations =  5.1

     total cpu time spent up to now is      303.2 secs

     total energy              =    -806.40325690 Ry
     estimated scf accuracy    <       0.08530290 Ry

     iteration #  4     ecut=   100.00 Ry     beta= 0.70
     Davidson diagonalization with overlap
     ethr =  1.15E-04,  avg # of iterations =  3.7

     total cpu time spent up to now is      361.8 secs

     total energy              =    -806.41520775 Ry
     estimated scf accuracy    <       0.00080573 Ry

     iteration #  5     ecut=   100.00 Ry     beta= 0.70
     Davidson diagonalization with overlap
     c_bands:  1 eigenvalues not converged
     c_bands:  1 eigenvalues not converged
     ethr =  1.09E-06,  avg # of iterations =  8.8

     total cpu time spent up to now is      465.7 secs

     total energy              =    -806.41682256 Ry
     estimated scf accuracy    <       0.00443668 Ry

     iteration #  6     ecut=   100.00 Ry     beta= 0.70
     Davidson diagonalization with overlap
     ethr =  1.09E-06,  avg # of iterations =  2.9

     total cpu time spent up to now is      521.1 secs

     total energy              =    -806.41622126 Ry
     estimated scf accuracy    <       0.00211737 Ry

     iteration #  7     ecut=   100.00 Ry     beta= 0.70
     Davidson diagonalization with overlap
     ethr =  1.09E-06,  avg # of iterations =  5.9

     total cpu time spent up to now is      590.6 secs

     total energy              =    -806.41664925 Ry
     estimated scf accuracy    <       0.00003158 Ry

     iteration #  8     ecut=   100.00 Ry     beta= 0.70
     Davidson diagonalization with overlap
     ethr =  4.27E-08,  avg # of iterations =  5.3

     total cpu time spent up to now is      652.0 secs

     total energy              =    -806.41665327 Ry
     estimated scf accuracy    <       0.00001002 Ry

     iteration #  9     ecut=   100.00 Ry     beta= 0.70
     Davidson diagonalization with overlap
     ethr =  1.35E-08,  avg # of iterations =  5.4

     total cpu time spent up to now is      716.8 secs

     End of self-consistent calculation

     Number of k-points >= 100: set verbosity='high' to print the bands.

     highest occupied level (ev):    16.5868

!    total energy              =    -806.41665526 Ry
     estimated scf accuracy    <       0.00000078 Ry

     The total energy is the sum of the following terms:
     one-electron contribution =    -171.20535126 Ry
     hartree contribution      =     171.00865838 Ry
     xc contribution           =    -274.62253640 Ry
     ewald contribution        =    -531.59742599 Ry

     convergence has been achieved in   9 iterations

     Forces acting on atoms (cartesian axes, Ry/au):

     atom    1 type  1   force =     0.00000000    0.00000000   -0.00000000
     atom    2 type  1   force =     0.00000000    0.00000000   -0.00000000
     atom    3 type  2   force =     0.00100398    0.00100398    0.00000000
     atom    4 type  2   force =    -0.00100398   -0.00100398    0.00000000
     atom    5 type  2   force =    -0.00100398    0.00100398    0.00000000
     atom    6 type  2   force =     0.00100398   -0.00100398   -0.00000000
     The non-local contrib.  to forces
     atom    1 type  1   force =     0.00000000    0.00000000   -0.00000000
     atom    2 type  1   force =    -0.00000000    0.00000000    0.00000000
     atom    3 type  2   force =     0.03483980    0.03483980    0.00000000
     atom    4 type  2   force =    -0.03483980   -0.03483980    0.00000000
     atom    5 type  2   force =    -0.03483980    0.03483980   -0.00000000
     atom    6 type  2   force =     0.03483980   -0.03483980    0.00000000
     The ionic contribution  to forces
     atom    1 type  1   force =    -0.00002432   -0.00002432   -0.00000000
     atom    2 type  1   force =     0.00002432    0.00002432    0.00000000
     atom    3 type  2   force =    -1.95503908   -1.95503908   -0.00000000
     atom    4 type  2   force =     1.95503908    1.95503908    0.00000000
     atom    5 type  2   force =     1.95495678   -1.95495678   -0.00005397
     atom    6 type  2   force =    -1.95495678    1.95495678    0.00005397
     The local contribution  to forces
     atom    1 type  1   force =     0.00000000    0.00000000    0.00000000
     atom    2 type  1   force =    -0.00000000   -0.00000000    0.00000000
     atom    3 type  2   force =     1.92192025    1.92192025    0.00000000
     atom    4 type  2   force =    -1.92192025   -1.92192025    0.00000000
     atom    5 type  2   force =    -1.92235021    1.92235021   -0.00033221
     atom    6 type  2   force =     1.92235021   -1.92235021    0.00033221
     The core correction contribution to forces
     atom    1 type  1   force =    -0.00000000   -0.00000000    0.00000000
     atom    2 type  1   force =     0.00000000    0.00000000   -0.00000000
     atom    3 type  2   force =    -0.00072422   -0.00072422   -0.00000000
     atom    4 type  2   force =     0.00072422    0.00072422    0.00000000
     atom    5 type  2   force =     0.00068496   -0.00068496   -0.00003086
     atom    6 type  2   force =    -0.00068496    0.00068496    0.00003086
     The Hubbard contrib.    to forces
     atom    1 type  1   force =     0.00000000    0.00000000    0.00000000
     atom    2 type  1   force =     0.00000000    0.00000000    0.00000000
     atom    3 type  2   force =     0.00000000    0.00000000    0.00000000
     atom    4 type  2   force =     0.00000000    0.00000000    0.00000000
     atom    5 type  2   force =     0.00000000    0.00000000    0.00000000
     atom    6 type  2   force =     0.00000000    0.00000000    0.00000000
     The SCF correction term to forces
     atom    1 type  1   force =     0.00000001    0.00000001    0.00000000
     atom    2 type  1   force =    -0.00000001   -0.00000001   -0.00000000
     atom    3 type  2   force =    -0.00026849   -0.00026849   -0.00000000
     atom    4 type  2   force =     0.00026849    0.00026849    0.00000000
     atom    5 type  2   force =     0.00026857   -0.00026857    0.00000006
     atom    6 type  2   force =    -0.00026857    0.00026857   -0.00000006

     Total force =     0.002840     Total SCF correction =     0.000760
     SCF correction compared to forces is large: reduce conv_thr to get better values

     BFGS Geometry Optimization
     Energy error            =      0.0E+00 Ry
     Gradient error          =      1.0E-03 Ry/Bohr

     bfgs converged in   1 scf cycles and   0 bfgs steps
     (criteria: energy <  1.0E-06 Ry, force <  1.0E-02 Ry/Bohr)

     End of BFGS Geometry Optimization

     Final energy             =    -806.4166552618 Ry
Begin final coordinates

ATOMIC_POSITIONS (crystal)
Cu            0.0000000000        0.2500000000        0.2500000000
Cu            0.0000000000       -0.2500000000       -0.2500000000
In           -0.5000000000        0.6581920000       -0.1581920000
In           -0.5000000000        0.3418080000        0.1581920000
In            0.1836170000        0.1581920000       -0.3418080000
In            0.8163830000       -0.1581920000       -0.6581920000
End final coordinates



     Writing all to output data dir ./tmp/CuIn2_Relax.save/

     init_run     :      8.68s CPU     27.22s WALL (       1 calls)
     electrons    :    217.28s CPU    687.45s WALL (       1 calls)
     forces       :      3.58s CPU     11.94s WALL (       1 calls)

     Called by init_run:
     wfcinit      :      7.48s CPU     23.90s WALL (       1 calls)
     potinit      :      0.16s CPU      0.49s WALL (       1 calls)
     hinit0       :      0.57s CPU      1.61s WALL (       1 calls)

     Called by electrons:
     c_bands      :    193.62s CPU    615.60s WALL (      10 calls)
     sum_band     :     22.90s CPU     69.43s WALL (      10 calls)
     v_of_rho     :      0.19s CPU      0.59s WALL (      10 calls)
     newd         :      0.59s CPU      1.82s WALL (      10 calls)
     mix_rho      :      0.03s CPU      0.11s WALL (      10 calls)

     Called by c_bands:
     init_us_2    :      1.41s CPU      1.86s WALL (    2244 calls)
     init_us_2:cp :      1.40s CPU      1.85s WALL (    2244 calls)
     cegterg      :    188.29s CPU    598.41s WALL (    1020 calls)

     Called by *egterg:
     cdiaghg      :     16.43s CPU     57.36s WALL (    5904 calls)
     h_psi        :    111.67s CPU    359.48s WALL (    6108 calls)
     s_psi        :     10.59s CPU     16.04s WALL (    6108 calls)
     g_psi        :      0.22s CPU      0.38s WALL (    4986 calls)

     Called by h_psi:
     h_psi:calbec :     23.03s CPU     86.88s WALL (    6108 calls)
     vloc_psi     :     77.40s CPU    258.21s WALL (    6108 calls)
     add_vuspsi   :     10.75s CPU     13.73s WALL (    6108 calls)

     General routines
     calbec       :     31.88s CPU    113.10s WALL (    7536 calls)
     fft          :      0.33s CPU      1.22s WALL (     122 calls)
     ffts         :      0.01s CPU      0.09s WALL (      10 calls)
     fftw         :     78.85s CPU    290.59s WALL (  265798 calls)

     Parallel routines

     PWSCF        :   3m52.37s CPU  12m25.56s WALL


   This run was terminated on:   0:27:43  12May2023            

=------------------------------------------------------------------------------=
   JOB DONE.
=------------------------------------------------------------------------------=
Note: The following floating-point exceptions are signalling: IEEE_INVALID_FLAG
