
     Program PWSCF v.7.2 starts on 12May2023 at  4:16:56 

     This program is part of the open-source Quantum ESPRESSO suite
     for quantum simulation of materials; please cite
         "P. Giannozzi et al., J. Phys.:Condens. Matter 21 395502 (2009);
         "P. Giannozzi et al., J. Phys.:Condens. Matter 29 465901 (2017);
         "P. Giannozzi et al., J. Chem. Phys. 152 154105 (2020);
          URL http://www.quantum-espresso.org", 
     in publications or presentations arising from this work. More details at
     http://www.quantum-espresso.org/quote

     Parallel version (MPI), running on    20 processors

     MPI processes distributed on     1 nodes
     1664 MiB available memory on the printing compute node when the environment starts

     Reading input from ./DFTData/CuIn2/relax/Relax_V760.00_0.in
Warning: card &CELL ignored
Warning: card / ignored

     Current dimensions of program PWSCF are:
     Max number of different atomic species (ntypx) = 10
     Max number of k-points (npk) =  40000
     Max angular momentum in pseudopotentials (lmaxx) =  4
     file Cu.pbe-dn-rrkjus_psl.1.0.0.UPF: wavefunction(s)  3D renormalized
     file In.pbe-dn-rrkjus_psl.1.0.0.UPF: wavefunction(s)  5S 4D renormalized

     R & G space division:  proc/nbgrp/npool/nimage =      20
     Subspace diagonalization in iterative solution of the eigenvalue problem:
     a serial algorithm will be used


     Parallelization info
     --------------------
     sticks:   dense  smooth     PW     G-vecs:    dense   smooth      PW
     Min         157     157     46                 5131     5131     833
     Max         158     158     47                 5133     5133     837
     Sum        3145    3145    935               102635   102635   16701

     Using Slab Decomposition



     bravais-lattice index     =            7
     lattice parameter (alat)  =      12.4602  a.u.
     unit-cell volume          =     760.0000 (a.u.)^3
     number of atoms/cell      =            6
     number of atomic types    =            2
     number of electrons       =        74.00
     number of Kohn-Sham states=           37
     kinetic-energy cutoff     =     100.0000  Ry
     charge density cutoff     =     400.0000  Ry
     scf convergence threshold =      1.0E-06
     mixing beta               =       0.7000
     number of iterations used =            8  plain     mixing
     energy convergence thresh.=      1.0E-06
     force convergence thresh. =      1.0E-02
     Exchange-correlation= PBE
                           (   1   4   3   4   0   0   0)
     nstep                     =           50


     celldm(1)=  12.460237  celldm(2)=   0.000000  celldm(3)=   0.785714
     celldm(4)=   0.000000  celldm(5)=   0.000000  celldm(6)=   0.000000

     crystal axes: (cart. coord. in units of alat)
               a(1) = (   0.500000  -0.500000   0.392857 )  
               a(2) = (   0.500000   0.500000   0.392857 )  
               a(3) = (  -0.500000  -0.500000   0.392857 )  

     reciprocal axes: (cart. coord. in units 2 pi/alat)
               b(1) = (  1.000000 -1.000000  0.000000 )  
               b(2) = (  0.000000  1.000000  1.272727 )  
               b(3) = ( -1.000000  0.000000  1.272727 )  


     PseudoPot. # 1 for Cu read from file:
     ./pseudos/Cu.pbe-dn-rrkjus_psl.1.0.0.UPF
     MD5 check sum: ba3d6c84e19846e79d48cdc68ff7152b
     Pseudo is Ultrasoft + core correction, Zval = 11.0
     Generated using &quot;atomic&quot; code by A. Dal Corso  v.6.3
     Using radial grid of 1199 points,  6 beta functions with: 
                l(1) =   0
                l(2) =   0
                l(3) =   1
                l(4) =   1
                l(5) =   2
                l(6) =   2
     Q(r) pseudized with 0 coefficients 


     PseudoPot. # 2 for In read from file:
     ./pseudos/In.pbe-dn-rrkjus_psl.1.0.0.UPF
     MD5 check sum: 7267d4f9f57825930b619e54710f1f3b
     Pseudo is Ultrasoft + core correction, Zval = 13.0
     Generated using &quot;atomic&quot; code by A. Dal Corso  v.6.3
     Using radial grid of 1241 points,  6 beta functions with: 
                l(1) =   0
                l(2) =   0
                l(3) =   1
                l(4) =   1
                l(5) =   2
                l(6) =   2
     Q(r) pseudized with 0 coefficients 


     atomic species   valence    mass     pseudopotential
        Cu            11.00    63.54600     Cu( 1.00)
        In            13.00   114.81800     In( 1.00)

     16 Sym. Ops., with inversion, found ( 8 have fractional translation)



   Cartesian axes

     site n.     atom                  positions (alat units)
         1           Cu  tau(   1) = (   0.0000000   0.0000000   0.1964286  )
         2           Cu  tau(   2) = (   0.0000000   0.0000000  -0.1964286  )
         3           In  tau(   3) = (   0.1581920   0.6581920   0.0000000  )
         4           In  tau(   4) = (  -0.1581920   0.3418080   0.0000000  )
         5           In  tau(   5) = (   0.3418085   0.1581915   0.0000004  )
         6           In  tau(   6) = (   0.6581915  -0.1581915  -0.0000004  )

     number of k points=   102

     Number of k-points >= 100: set verbosity='high' to print them.

     Dense  grid:   102635 G-vectors     FFT dimensions: (  72,  72,  72)

     Estimated max dynamical RAM per process >      60.66 MB

     Estimated total dynamical RAM >       1.18 GB

     Initial potential from superposition of free atoms

     starting charge      73.9847, renormalised to      74.0000
     Starting wfcs are   54 randomized atomic wfcs

     total cpu time spent up to now is       37.0 secs

     Self-consistent Calculation

     iteration #  1     ecut=   100.00 Ry     beta= 0.70
     Davidson diagonalization with overlap
     ethr =  1.00E-02,  avg # of iterations =  2.0

     Threshold (ethr) on eigenvalues was too large:
     Diagonalizing with lowered threshold

     Davidson diagonalization with overlap
     ethr =  8.48E-05,  avg # of iterations =  5.5

     total cpu time spent up to now is      208.3 secs

     total energy              =    -806.40858767 Ry
     estimated scf accuracy    <       0.10584865 Ry

     iteration #  2     ecut=   100.00 Ry     beta= 0.70
     Davidson diagonalization with overlap
     ethr =  1.43E-04,  avg # of iterations =  4.4

     total cpu time spent up to now is      308.0 secs

     total energy              =    -806.40826338 Ry
     estimated scf accuracy    <       0.12963405 Ry

     iteration #  3     ecut=   100.00 Ry     beta= 0.70
     Davidson diagonalization with overlap
     ethr =  1.43E-04,  avg # of iterations =  5.1

     total cpu time spent up to now is      398.1 secs

     total energy              =    -806.43214555 Ry
     estimated scf accuracy    <       0.08770720 Ry

     iteration #  4     ecut=   100.00 Ry     beta= 0.70
     Davidson diagonalization with overlap
     ethr =  1.19E-04,  avg # of iterations =  3.7

     total cpu time spent up to now is      474.8 secs

     total energy              =    -806.44405972 Ry
     estimated scf accuracy    <       0.00091502 Ry

     iteration #  5     ecut=   100.00 Ry     beta= 0.70
     Davidson diagonalization with overlap
     c_bands:  1 eigenvalues not converged
     c_bands:  2 eigenvalues not converged
     c_bands:  1 eigenvalues not converged
     ethr =  1.24E-06,  avg # of iterations =  9.2

     total cpu time spent up to now is      609.1 secs

     total energy              =    -806.44572810 Ry
     estimated scf accuracy    <       0.00477480 Ry

     iteration #  6     ecut=   100.00 Ry     beta= 0.70
     Davidson diagonalization with overlap
     ethr =  1.24E-06,  avg # of iterations =  3.3

     total cpu time spent up to now is      685.1 secs

     total energy              =    -806.44521097 Ry
     estimated scf accuracy    <       0.00203848 Ry

     iteration #  7     ecut=   100.00 Ry     beta= 0.70
     Davidson diagonalization with overlap
     ethr =  1.24E-06,  avg # of iterations =  5.7

     total cpu time spent up to now is      774.7 secs

     total energy              =    -806.44557671 Ry
     estimated scf accuracy    <       0.00001941 Ry

     iteration #  8     ecut=   100.00 Ry     beta= 0.70
     Davidson diagonalization with overlap
     ethr =  2.62E-08,  avg # of iterations =  6.0

     total cpu time spent up to now is      864.5 secs

     total energy              =    -806.44558539 Ry
     estimated scf accuracy    <       0.00000192 Ry

     iteration #  9     ecut=   100.00 Ry     beta= 0.70
     Davidson diagonalization with overlap
     ethr =  2.59E-09,  avg # of iterations =  4.8

     total cpu time spent up to now is      946.2 secs

     End of self-consistent calculation

     Number of k-points >= 100: set verbosity='high' to print the bands.

     highest occupied level (ev):    15.5349

!    total energy              =    -806.44558570 Ry
     estimated scf accuracy    <       0.00000007 Ry

     The total energy is the sum of the following terms:
     one-electron contribution =    -185.94483552 Ry
     hartree contribution      =     176.04458542 Ry
     xc contribution           =    -274.44275782 Ry
     ewald contribution        =    -522.10257778 Ry

     convergence has been achieved in   9 iterations

     Forces acting on atoms (cartesian axes, Ry/au):

     atom    1 type  1   force =     0.00000000    0.00000000   -0.00000000
     atom    2 type  1   force =     0.00000000    0.00000000   -0.00000000
     atom    3 type  2   force =     0.00148781    0.00148781   -0.00000000
     atom    4 type  2   force =    -0.00148781   -0.00148781   -0.00000000
     atom    5 type  2   force =    -0.00148781    0.00148781    0.00000000
     atom    6 type  2   force =     0.00148781   -0.00148781    0.00000000
     The non-local contrib.  to forces
     atom    1 type  1   force =     0.00000000    0.00000000   -0.00000000
     atom    2 type  1   force =    -0.00000000    0.00000000    0.00000000
     atom    3 type  2   force =     0.03341652    0.03341652    0.00000000
     atom    4 type  2   force =    -0.03341652   -0.03341652    0.00000000
     atom    5 type  2   force =    -0.03341652    0.03341652    0.00000000
     atom    6 type  2   force =     0.03341652   -0.03341652   -0.00000000
     The ionic contribution  to forces
     atom    1 type  1   force =    -0.00002346   -0.00002346    0.00000000
     atom    2 type  1   force =     0.00002346    0.00002346   -0.00000000
     atom    3 type  2   force =    -1.88582496   -1.88582496   -0.00000000
     atom    4 type  2   force =     1.88582496    1.88582496   -0.00000000
     atom    5 type  2   force =     1.88574557   -1.88574557   -0.00005206
     atom    6 type  2   force =    -1.88574557    1.88574557    0.00005206
     The local contribution  to forces
     atom    1 type  1   force =    -0.00000000   -0.00000000   -0.00000000
     atom    2 type  1   force =     0.00000000    0.00000000   -0.00000000
     atom    3 type  2   force =     1.85431315    1.85431315   -0.00000000
     atom    4 type  2   force =    -1.85431315   -1.85431315   -0.00000000
     atom    5 type  2   force =    -1.85475376    1.85475376   -0.00034083
     atom    6 type  2   force =     1.85475376   -1.85475376    0.00034083
     The core correction contribution to forces
     atom    1 type  1   force =     0.00000000    0.00000000   -0.00000000
     atom    2 type  1   force =    -0.00000000   -0.00000000   -0.00000000
     atom    3 type  2   force =    -0.00071250   -0.00071250    0.00000000
     atom    4 type  2   force =     0.00071250    0.00071250   -0.00000000
     atom    5 type  2   force =     0.00067255   -0.00067255   -0.00003140
     atom    6 type  2   force =    -0.00067255    0.00067255    0.00003140
     The Hubbard contrib.    to forces
     atom    1 type  1   force =     0.00000000    0.00000000    0.00000000
     atom    2 type  1   force =     0.00000000    0.00000000    0.00000000
     atom    3 type  2   force =     0.00000000    0.00000000    0.00000000
     atom    4 type  2   force =     0.00000000    0.00000000    0.00000000
     atom    5 type  2   force =     0.00000000    0.00000000    0.00000000
     atom    6 type  2   force =     0.00000000    0.00000000    0.00000000
     The SCF correction term to forces
     atom    1 type  1   force =     0.00000001    0.00000001   -0.00000000
     atom    2 type  1   force =    -0.00000001   -0.00000001   -0.00000000
     atom    3 type  2   force =     0.00001566    0.00001566   -0.00000000
     atom    4 type  2   force =    -0.00001566   -0.00001566   -0.00000000
     atom    5 type  2   force =    -0.00001558    0.00001558    0.00000006
     atom    6 type  2   force =     0.00001558   -0.00001558   -0.00000006

     Total force =     0.004208     Total SCF correction =     0.000044

     BFGS Geometry Optimization
     Energy error            =      0.0E+00 Ry
     Gradient error          =      1.5E-03 Ry/Bohr

     bfgs converged in   1 scf cycles and   0 bfgs steps
     (criteria: energy <  1.0E-06 Ry, force <  1.0E-02 Ry/Bohr)

     End of BFGS Geometry Optimization

     Final energy             =    -806.4455857049 Ry
Begin final coordinates

ATOMIC_POSITIONS (crystal)
Cu            0.0000000000        0.2500000000        0.2500000000
Cu            0.0000000000       -0.2500000000       -0.2500000000
In           -0.5000000000        0.6581920000       -0.1581920000
In           -0.5000000000        0.3418080000        0.1581920000
In            0.1836170000        0.1581920000       -0.3418080000
In            0.8163830000       -0.1581920000       -0.6581920000
End final coordinates



     Writing all to output data dir ./tmp/CuIn2_Relax.save/

     init_run     :     11.07s CPU     35.00s WALL (       1 calls)
     electrons    :    279.06s CPU    909.21s WALL (       1 calls)
     forces       :      3.85s CPU     13.24s WALL (       1 calls)

     Called by init_run:
     wfcinit      :      9.68s CPU     30.85s WALL (       1 calls)
     potinit      :      0.17s CPU      0.52s WALL (       1 calls)
     hinit0       :      0.77s CPU      2.37s WALL (       1 calls)

     Called by electrons:
     c_bands      :    245.68s CPU    801.26s WALL (      10 calls)
     sum_band     :     32.53s CPU    105.34s WALL (      10 calls)
     v_of_rho     :      0.23s CPU      0.75s WALL (      10 calls)
     newd         :      0.65s CPU      1.84s WALL (      10 calls)
     mix_rho      :      0.02s CPU      0.14s WALL (      10 calls)

     Called by c_bands:
     init_us_2    :      1.49s CPU      2.01s WALL (    2244 calls)
     init_us_2:cp :      1.48s CPU      2.00s WALL (    2244 calls)
     cegterg      :    240.20s CPU    783.28s WALL (    1020 calls)

     Called by *egterg:
     cdiaghg      :     16.85s CPU     56.83s WALL (    5973 calls)
     h_psi        :    162.27s CPU    544.75s WALL (    6177 calls)
     s_psi        :     10.97s CPU     16.51s WALL (    6177 calls)
     g_psi        :      0.23s CPU      0.35s WALL (    5055 calls)

     Called by h_psi:
     h_psi:calbec :     22.86s CPU     86.72s WALL (    6177 calls)
     vloc_psi     :    127.82s CPU    443.37s WALL (    6177 calls)
     add_vuspsi   :     11.07s CPU     13.94s WALL (    6177 calls)

     General routines
     calbec       :     31.85s CPU    114.66s WALL (    7605 calls)
     fft          :      0.48s CPU      1.79s WALL (     122 calls)
     ffts         :      0.01s CPU      0.11s WALL (      10 calls)
     fftw         :    136.24s CPU    506.78s WALL (  266868 calls)

     Parallel routines

     PWSCF        :   4m56.57s CPU  16m16.07s WALL


   This run was terminated on:   4:33:12  12May2023            

=------------------------------------------------------------------------------=
   JOB DONE.
=------------------------------------------------------------------------------=
Note: The following floating-point exceptions are signalling: IEEE_INVALID_FLAG
