
     Program PWSCF v.7.2 starts on 12May2023 at  2:10:21 

     This program is part of the open-source Quantum ESPRESSO suite
     for quantum simulation of materials; please cite
         "P. Giannozzi et al., J. Phys.:Condens. Matter 21 395502 (2009);
         "P. Giannozzi et al., J. Phys.:Condens. Matter 29 465901 (2017);
         "P. Giannozzi et al., J. Chem. Phys. 152 154105 (2020);
          URL http://www.quantum-espresso.org", 
     in publications or presentations arising from this work. More details at
     http://www.quantum-espresso.org/quote

     Parallel version (MPI), running on    20 processors

     MPI processes distributed on     1 nodes
     1651 MiB available memory on the printing compute node when the environment starts

     Reading input from ./DFTData/CuIn2/relax/Relax_V740.00_0.in
Warning: card &CELL ignored
Warning: card / ignored

     Current dimensions of program PWSCF are:
     Max number of different atomic species (ntypx) = 10
     Max number of k-points (npk) =  40000
     Max angular momentum in pseudopotentials (lmaxx) =  4
     file Cu.pbe-dn-rrkjus_psl.1.0.0.UPF: wavefunction(s)  3D renormalized
     file In.pbe-dn-rrkjus_psl.1.0.0.UPF: wavefunction(s)  5S 4D renormalized

     R & G space division:  proc/nbgrp/npool/nimage =      20
     Subspace diagonalization in iterative solution of the eigenvalue problem:
     a serial algorithm will be used


     Parallelization info
     --------------------
     sticks:   dense  smooth     PW     G-vecs:    dense   smooth      PW
     Min         154     154     46                 4995     4995     813
     Max         155     155     47                 4997     4997     816
     Sum        3083    3083    927                99919    99919   16285

     Using Slab Decomposition



     bravais-lattice index     =            7
     lattice parameter (alat)  =      12.3500  a.u.
     unit-cell volume          =     740.0000 (a.u.)^3
     number of atoms/cell      =            6
     number of atomic types    =            2
     number of electrons       =        74.00
     number of Kohn-Sham states=           37
     kinetic-energy cutoff     =     100.0000  Ry
     charge density cutoff     =     400.0000  Ry
     scf convergence threshold =      1.0E-06
     mixing beta               =       0.7000
     number of iterations used =            8  plain     mixing
     energy convergence thresh.=      1.0E-06
     force convergence thresh. =      1.0E-02
     Exchange-correlation= PBE
                           (   1   4   3   4   0   0   0)
     nstep                     =           50


     celldm(1)=  12.349964  celldm(2)=   0.000000  celldm(3)=   0.785714
     celldm(4)=   0.000000  celldm(5)=   0.000000  celldm(6)=   0.000000

     crystal axes: (cart. coord. in units of alat)
               a(1) = (   0.500000  -0.500000   0.392857 )  
               a(2) = (   0.500000   0.500000   0.392857 )  
               a(3) = (  -0.500000  -0.500000   0.392857 )  

     reciprocal axes: (cart. coord. in units 2 pi/alat)
               b(1) = (  1.000000 -1.000000  0.000000 )  
               b(2) = (  0.000000  1.000000  1.272727 )  
               b(3) = ( -1.000000  0.000000  1.272727 )  


     PseudoPot. # 1 for Cu read from file:
     ./pseudos/Cu.pbe-dn-rrkjus_psl.1.0.0.UPF
     MD5 check sum: ba3d6c84e19846e79d48cdc68ff7152b
     Pseudo is Ultrasoft + core correction, Zval = 11.0
     Generated using &quot;atomic&quot; code by A. Dal Corso  v.6.3
     Using radial grid of 1199 points,  6 beta functions with: 
                l(1) =   0
                l(2) =   0
                l(3) =   1
                l(4) =   1
                l(5) =   2
                l(6) =   2
     Q(r) pseudized with 0 coefficients 


     PseudoPot. # 2 for In read from file:
     ./pseudos/In.pbe-dn-rrkjus_psl.1.0.0.UPF
     MD5 check sum: 7267d4f9f57825930b619e54710f1f3b
     Pseudo is Ultrasoft + core correction, Zval = 13.0
     Generated using &quot;atomic&quot; code by A. Dal Corso  v.6.3
     Using radial grid of 1241 points,  6 beta functions with: 
                l(1) =   0
                l(2) =   0
                l(3) =   1
                l(4) =   1
                l(5) =   2
                l(6) =   2
     Q(r) pseudized with 0 coefficients 


     atomic species   valence    mass     pseudopotential
        Cu            11.00    63.54600     Cu( 1.00)
        In            13.00   114.81800     In( 1.00)

     16 Sym. Ops., with inversion, found ( 8 have fractional translation)



   Cartesian axes

     site n.     atom                  positions (alat units)
         1           Cu  tau(   1) = (   0.0000000   0.0000000   0.1964286  )
         2           Cu  tau(   2) = (   0.0000000   0.0000000  -0.1964286  )
         3           In  tau(   3) = (   0.1581920   0.6581920   0.0000000  )
         4           In  tau(   4) = (  -0.1581920   0.3418080   0.0000000  )
         5           In  tau(   5) = (   0.3418085   0.1581915   0.0000004  )
         6           In  tau(   6) = (   0.6581915  -0.1581915  -0.0000004  )

     number of k points=   102

     Number of k-points >= 100: set verbosity='high' to print them.

     Dense  grid:    99919 G-vectors     FFT dimensions: (  64,  64,  64)

     Estimated max dynamical RAM per process >      58.88 MB

     Estimated total dynamical RAM >       1.15 GB

     Initial potential from superposition of free atoms

     starting charge      73.9847, renormalised to      74.0000
     Starting wfcs are   54 randomized atomic wfcs

     total cpu time spent up to now is       29.3 secs

     Self-consistent Calculation

     iteration #  1     ecut=   100.00 Ry     beta= 0.70
     Davidson diagonalization with overlap
     ethr =  1.00E-02,  avg # of iterations =  2.0

     Threshold (ethr) on eigenvalues was too large:
     Diagonalizing with lowered threshold

     Davidson diagonalization with overlap
     ethr =  9.19E-05,  avg # of iterations =  5.4

     total cpu time spent up to now is      157.5 secs

     total energy              =    -806.39286917 Ry
     estimated scf accuracy    <       0.11340053 Ry

     iteration #  2     ecut=   100.00 Ry     beta= 0.70
     Davidson diagonalization with overlap
     ethr =  1.53E-04,  avg # of iterations =  4.5

     total cpu time spent up to now is      235.9 secs

     total energy              =    -806.39057264 Ry
     estimated scf accuracy    <       0.15253963 Ry

     iteration #  3     ecut=   100.00 Ry     beta= 0.70
     Davidson diagonalization with overlap
     ethr =  1.53E-04,  avg # of iterations =  5.1

     total cpu time spent up to now is      305.3 secs

     total energy              =    -806.41958014 Ry
     estimated scf accuracy    <       0.08775755 Ry

     iteration #  4     ecut=   100.00 Ry     beta= 0.70
     Davidson diagonalization with overlap
     ethr =  1.19E-04,  avg # of iterations =  3.7

     total cpu time spent up to now is      365.7 secs

     total energy              =    -806.43162396 Ry
     estimated scf accuracy    <       0.00089487 Ry

     iteration #  5     ecut=   100.00 Ry     beta= 0.70
     Davidson diagonalization with overlap
     c_bands:  1 eigenvalues not converged
     c_bands:  1 eigenvalues not converged
     ethr =  1.21E-06,  avg # of iterations =  8.7

     total cpu time spent up to now is      473.8 secs

     total energy              =    -806.43328083 Ry
     estimated scf accuracy    <       0.00467023 Ry

     iteration #  6     ecut=   100.00 Ry     beta= 0.70
     Davidson diagonalization with overlap
     ethr =  1.21E-06,  avg # of iterations =  3.0

     total cpu time spent up to now is      530.7 secs

     total energy              =    -806.43271153 Ry
     estimated scf accuracy    <       0.00211984 Ry

     iteration #  7     ecut=   100.00 Ry     beta= 0.70
     Davidson diagonalization with overlap
     ethr =  1.21E-06,  avg # of iterations =  5.8

     total cpu time spent up to now is      600.7 secs

     total energy              =    -806.43312544 Ry
     estimated scf accuracy    <       0.00004079 Ry

     iteration #  8     ecut=   100.00 Ry     beta= 0.70
     Davidson diagonalization with overlap
     ethr =  5.51E-08,  avg # of iterations =  5.1

     total cpu time spent up to now is      664.1 secs

     total energy              =    -806.43312450 Ry
     estimated scf accuracy    <       0.00002333 Ry

     iteration #  9     ecut=   100.00 Ry     beta= 0.70
     Davidson diagonalization with overlap
     ethr =  3.15E-08,  avg # of iterations =  5.6

     total cpu time spent up to now is      729.3 secs

     total energy              =    -806.43313743 Ry
     estimated scf accuracy    <       0.00000263 Ry

     iteration # 10     ecut=   100.00 Ry     beta= 0.70
     Davidson diagonalization with overlap
     ethr =  3.56E-09,  avg # of iterations =  3.0

     total cpu time spent up to now is      782.6 secs

     total energy              =    -806.43313648 Ry
     estimated scf accuracy    <       0.00000276 Ry

     iteration # 11     ecut=   100.00 Ry     beta= 0.70
     Davidson diagonalization with overlap
     c_bands:  1 eigenvalues not converged
     ethr =  3.56E-09,  avg # of iterations =  5.5

     total cpu time spent up to now is      847.9 secs

     total energy              =    -806.43313716 Ry
     estimated scf accuracy    <       0.00000154 Ry

     iteration # 12     ecut=   100.00 Ry     beta= 0.70
     Davidson diagonalization with overlap
     c_bands:  1 eigenvalues not converged
     ethr =  2.08E-09,  avg # of iterations =  2.1

     total cpu time spent up to now is      897.5 secs

     total energy              =    -806.43313710 Ry
     estimated scf accuracy    <       0.00000144 Ry

     iteration # 13     ecut=   100.00 Ry     beta= 0.70
     Davidson diagonalization with overlap
     ethr =  1.95E-09,  avg # of iterations =  1.0

     total cpu time spent up to now is      943.7 secs

     total energy              =    -806.43313686 Ry
     estimated scf accuracy    <       0.00000110 Ry

     iteration # 14     ecut=   100.00 Ry     beta= 0.70
     Davidson diagonalization with overlap
     ethr =  1.49E-09,  avg # of iterations =  2.6

     total cpu time spent up to now is      999.6 secs

     End of self-consistent calculation

     Number of k-points >= 100: set verbosity='high' to print the bands.

     highest occupied level (ev):    16.0460

!    total energy              =    -806.43313682 Ry
     estimated scf accuracy    <       0.00000014 Ry

     The total energy is the sum of the following terms:
     one-electron contribution =    -178.68893984 Ry
     hartree contribution      =     173.54792696 Ry
     xc contribution           =    -274.52766933 Ry
     ewald contribution        =    -526.76445461 Ry

     convergence has been achieved in  14 iterations

     Forces acting on atoms (cartesian axes, Ry/au):

     atom    1 type  1   force =    -0.00000000    0.00000000    0.00000000
     atom    2 type  1   force =    -0.00000000    0.00000000    0.00000000
     atom    3 type  2   force =     0.00155915    0.00155915    0.00000000
     atom    4 type  2   force =    -0.00155915   -0.00155915    0.00000000
     atom    5 type  2   force =    -0.00155915    0.00155915   -0.00000000
     atom    6 type  2   force =     0.00155915   -0.00155915    0.00000000
     The non-local contrib.  to forces
     atom    1 type  1   force =     0.00000000    0.00000000    0.00000000
     atom    2 type  1   force =     0.00000000    0.00000000    0.00000000
     atom    3 type  2   force =     0.03451986    0.03451986    0.00000000
     atom    4 type  2   force =    -0.03451986   -0.03451986    0.00000000
     atom    5 type  2   force =    -0.03451986    0.03451986    0.00000000
     atom    6 type  2   force =     0.03451986   -0.03451986   -0.00000000
     The ionic contribution  to forces
     atom    1 type  1   force =    -0.00002388   -0.00002388    0.00000000
     atom    2 type  1   force =     0.00002388    0.00002388   -0.00000000
     atom    3 type  2   force =    -1.91965254   -1.91965254    0.00000000
     atom    4 type  2   force =     1.91965254    1.91965254   -0.00000000
     atom    5 type  2   force =     1.91957173   -1.91957173   -0.00005300
     atom    6 type  2   force =    -1.91957173    1.91957173    0.00005300
     The local contribution  to forces
     atom    1 type  1   force =    -0.00000000    0.00000000   -0.00000000
     atom    2 type  1   force =     0.00000000   -0.00000000    0.00000000
     atom    3 type  2   force =     1.88682485    1.88682485    0.00000000
     atom    4 type  2   force =    -1.88682485   -1.88682485   -0.00000000
     atom    5 type  2   force =    -1.88726018    1.88726018   -0.00033657
     atom    6 type  2   force =     1.88726018   -1.88726018    0.00033657
     The core correction contribution to forces
     atom    1 type  1   force =    -0.00000000   -0.00000000    0.00000000
     atom    2 type  1   force =     0.00000000    0.00000000   -0.00000000
     atom    3 type  2   force =    -0.00072203   -0.00072203    0.00000000
     atom    4 type  2   force =     0.00072203    0.00072203   -0.00000000
     atom    5 type  2   force =     0.00068242   -0.00068242   -0.00003113
     atom    6 type  2   force =    -0.00068242    0.00068242    0.00003113
     The Hubbard contrib.    to forces
     atom    1 type  1   force =     0.00000000    0.00000000    0.00000000
     atom    2 type  1   force =     0.00000000    0.00000000    0.00000000
     atom    3 type  2   force =     0.00000000    0.00000000    0.00000000
     atom    4 type  2   force =     0.00000000    0.00000000    0.00000000
     atom    5 type  2   force =     0.00000000    0.00000000    0.00000000
     atom    6 type  2   force =     0.00000000    0.00000000    0.00000000
     The SCF correction term to forces
     atom    1 type  1   force =    -0.00000000   -0.00000000   -0.00000000
     atom    2 type  1   force =     0.00000000    0.00000000    0.00000000
     atom    3 type  2   force =     0.00031113    0.00031113    0.00000000
     atom    4 type  2   force =    -0.00031113   -0.00031113   -0.00000000
     atom    5 type  2   force =    -0.00031114    0.00031114   -0.00000000
     atom    6 type  2   force =     0.00031114   -0.00031114    0.00000000

     Total force =     0.004410     Total SCF correction =     0.000880
     SCF correction compared to forces is large: reduce conv_thr to get better values

     BFGS Geometry Optimization
     Energy error            =      0.0E+00 Ry
     Gradient error          =      1.6E-03 Ry/Bohr

     bfgs converged in   1 scf cycles and   0 bfgs steps
     (criteria: energy <  1.0E-06 Ry, force <  1.0E-02 Ry/Bohr)

     End of BFGS Geometry Optimization

     Final energy             =    -806.4331368218 Ry
Begin final coordinates

ATOMIC_POSITIONS (crystal)
Cu            0.0000000000        0.2500000000        0.2500000000
Cu            0.0000000000       -0.2500000000       -0.2500000000
In           -0.5000000000        0.6581920000       -0.1581920000
In           -0.5000000000        0.3418080000        0.1581920000
In            0.1836170000        0.1581920000       -0.3418080000
In            0.8163830000       -0.1581920000       -0.6581920000
End final coordinates



     Writing all to output data dir ./tmp/CuIn2_Relax.save/

     init_run     :      8.49s CPU     27.65s WALL (       1 calls)
     electrons    :    296.06s CPU    970.43s WALL (       1 calls)
     forces       :      3.72s CPU     12.82s WALL (       1 calls)

     Called by init_run:
     wfcinit      :      7.37s CPU     24.35s WALL (       1 calls)
     potinit      :      0.18s CPU      0.49s WALL (       1 calls)
     hinit0       :      0.55s CPU      1.62s WALL (       1 calls)

     Called by electrons:
     c_bands      :    262.26s CPU    858.02s WALL (      15 calls)
     sum_band     :     32.53s CPU    108.67s WALL (      15 calls)
     v_of_rho     :      0.31s CPU      0.84s WALL (      15 calls)
     newd         :      0.94s CPU      2.70s WALL (      15 calls)
     mix_rho      :      0.05s CPU      0.21s WALL (      15 calls)

     Called by c_bands:
     init_us_2    :      2.09s CPU      2.92s WALL (    3264 calls)
     init_us_2:cp :      2.08s CPU      2.90s WALL (    3264 calls)
     cegterg      :    254.23s CPU    832.16s WALL (    1530 calls)

     Called by *egterg:
     cdiaghg      :     21.27s CPU     73.18s WALL (    7863 calls)
     h_psi        :    148.72s CPU    504.82s WALL (    8067 calls)
     s_psi        :     14.52s CPU     22.77s WALL (    8067 calls)
     g_psi        :      0.29s CPU      0.56s WALL (    6435 calls)

     Called by h_psi:
     h_psi:calbec :     29.72s CPU    116.41s WALL (    8067 calls)
     vloc_psi     :    103.66s CPU    368.74s WALL (    8067 calls)
     add_vuspsi   :     14.69s CPU     18.82s WALL (    8067 calls)

     General routines
     calbec       :     41.09s CPU    150.91s WALL (   10005 calls)
     fft          :      0.40s CPU      1.41s WALL (     177 calls)
     ffts         :      0.03s CPU      0.15s WALL (      15 calls)
     fftw         :    109.48s CPU    427.79s WALL (  368694 calls)

     Parallel routines

     PWSCF        :   5m10.94s CPU  17m 8.98s WALL


   This run was terminated on:   2:27:30  12May2023            

=------------------------------------------------------------------------------=
   JOB DONE.
=------------------------------------------------------------------------------=
Note: The following floating-point exceptions are signalling: IEEE_INVALID_FLAG
