
     Program PWSCF v.7.1 starts on 23May2023 at  3:38:28 

     This program is part of the open-source Quantum ESPRESSO suite
     for quantum simulation of materials; please cite
         "P. Giannozzi et al., J. Phys.:Condens. Matter 21 395502 (2009);
         "P. Giannozzi et al., J. Phys.:Condens. Matter 29 465901 (2017);
         "P. Giannozzi et al., J. Chem. Phys. 152 154105 (2020);
          URL http://www.quantum-espresso.org", 
     in publications or presentations arising from this work. More details at
     http://www.quantum-espresso.org/quote

     Parallel version (MPI), running on     1 processors

     MPI processes distributed on     1 nodes
     43414 MiB available memory on the printing compute node when the environment starts

     Reading input from CuC16-002.in

     Current dimensions of program PWSCF are:
     Max number of different atomic species (ntypx) = 10
     Max number of k-points (npk) =  40000
     Max angular momentum in pseudopotentials (lmaxx) =  4
     file Cu.pbe-dn-rrkjus_psl.1.0.0.UPF: wavefunction(s)  3D renormalized
     file In.pbe-dn-rrkjus_psl.1.0.0.UPF: wavefunction(s)  5S 4D renormalized

     Subspace diagonalization in iterative solution of the eigenvalue problem:
     a serial algorithm will be used


     G-vector sticks info
     --------------------
     sticks:   dense  smooth     PW     G-vecs:    dense   smooth      PW
     Sum        7145    7145   1861               475803   475803   62799

     Using Slab Decomposition



     bravais-lattice index     =            0
     lattice parameter (alat)  =      19.3395  a.u.
     unit-cell volume          =    7577.7511 (a.u.)^3
     number of atoms/cell      =          432
     number of atomic types    =            2
     number of electrons       =      5328.00
     number of Kohn-Sham states=         2664
     kinetic-energy cutoff     =      60.0000  Ry
     charge density cutoff     =     240.0000  Ry
     scf convergence threshold =      1.0E-07
     mixing beta               =       0.7000
     number of iterations used =            8  plain     mixing
     Exchange-correlation= PBE
                           (   1   4   3   4   0   0   0)

     celldm(1)=  19.339518  celldm(2)=   0.000000  celldm(3)=   0.000000
     celldm(4)=   0.000000  celldm(5)=   0.000000  celldm(6)=   0.000000

     crystal axes: (cart. coord. in units of alat)
               a(1) = (   1.000000   0.000000   0.000000 )  
               a(2) = (   0.000000   1.000000   0.000000 )  
               a(3) = (   0.000000   0.000000   1.047619 )  

     reciprocal axes: (cart. coord. in units 2 pi/alat)
               b(1) = (  1.000000  0.000000  0.000000 )  
               b(2) = (  0.000000  1.000000  0.000000 )  
               b(3) = (  0.000000  0.000000  0.954545 )  


     PseudoPot. # 1 for Cu read from file:
     ./pseudos/Cu.pbe-dn-rrkjus_psl.1.0.0.UPF
     MD5 check sum: ba3d6c84e19846e79d48cdc68ff7152b
     Pseudo is Ultrasoft + core correction, Zval = 11.0
     Generated using &quot;atomic&quot; code by A. Dal Corso  v.6.3
     Using radial grid of 1199 points,  6 beta functions with: 
                l(1) =   0
                l(2) =   0
                l(3) =   1
                l(4) =   1
                l(5) =   2
                l(6) =   2
     Q(r) pseudized with 0 coefficients 


     PseudoPot. # 2 for In read from file:
     ./pseudos/In.pbe-dn-rrkjus_psl.1.0.0.UPF
     MD5 check sum: 7267d4f9f57825930b619e54710f1f3b
     Pseudo is Ultrasoft + core correction, Zval = 13.0
     Generated using &quot;atomic&quot; code by A. Dal Corso  v.6.3
     Using radial grid of 1241 points,  6 beta functions with: 
                l(1) =   0
                l(2) =   0
                l(3) =   1
                l(4) =   1
                l(5) =   2
                l(6) =   2
     Q(r) pseudized with 0 coefficients 


     atomic species   valence    mass     pseudopotential
        Cu            11.00    63.54600     Cu( 1.00)
        In            13.00   114.81800     In( 1.00)

     No symmetry found



   Cartesian axes

     site n.     atom                  positions (alat units)
         1           Cu  tau(   1) = (   0.0000000   0.0000000   0.0654762  )
         2           Cu  tau(   2) = (   0.3333333   0.0000000   0.0654762  )
         3           Cu  tau(   3) = (   0.6666667   0.0000000   0.0654762  )
         4           Cu  tau(   4) = (   0.0000000   0.3333333   0.0654762  )
         5           Cu  tau(   5) = (   0.3333333   0.3333333   0.0654762  )
         6           Cu  tau(   6) = (   0.6666667   0.3333333   0.0654762  )
         7           Cu  tau(   7) = (   0.0000000   0.6666667   0.0654762  )
         8           Cu  tau(   8) = (   0.3333333   0.6666667   0.0654762  )
         9           Cu  tau(   9) = (   0.6666667   0.6666667   0.0654762  )
        10           Cu  tau(  10) = (   0.0000000   0.0000000   0.3273810  )
        11           Cu  tau(  11) = (   0.3333333   0.0000000   0.3273810  )
        12           Cu  tau(  12) = (   0.6666667   0.0000000   0.3273810  )
        13           Cu  tau(  13) = (   0.0000000   0.3333333   0.3273810  )
        14           Cu  tau(  14) = (   0.3333333   0.3333333   0.3273810  )
        15           Cu  tau(  15) = (   0.6666667   0.3333333   0.3273810  )
        16           Cu  tau(  16) = (   0.0000000   0.6666667   0.3273810  )
        17           Cu  tau(  17) = (   0.3333333   0.6666667   0.3273810  )
        18           Cu  tau(  18) = (   0.6666667   0.6666667   0.3273810  )
        19           Cu  tau(  19) = (   0.0000000   0.0000000   0.5892857  )
        20           Cu  tau(  20) = (   0.3333333   0.0000000   0.5892857  )
        21           Cu  tau(  21) = (   0.6666667   0.0000000   0.5892857  )
        22           Cu  tau(  22) = (   0.0000000   0.3333333   0.5892857  )
        23           Cu  tau(  23) = (   0.3333333   0.3333333   0.5892857  )
        24           Cu  tau(  24) = (   0.6666667   0.3333333   0.5892857  )
        25           Cu  tau(  25) = (   0.0000000   0.6666667   0.5892857  )
        26           Cu  tau(  26) = (   0.3333333   0.6666667   0.5892857  )
        27           Cu  tau(  27) = (   0.6666667   0.6666667   0.5892857  )
        28           Cu  tau(  28) = (   0.0000000   0.0000000   0.8511905  )
        29           Cu  tau(  29) = (   0.3333333   0.0000000   0.8511905  )
        30           Cu  tau(  30) = (   0.6666667   0.0000000   0.8511905  )
        31           Cu  tau(  31) = (   0.0000000   0.3333333   0.8511905  )
        32           Cu  tau(  32) = (   0.3333333   0.3333333   0.8511905  )
        33           Cu  tau(  33) = (   0.6666667   0.3333333   0.8511905  )
        34           Cu  tau(  34) = (   0.0000000   0.6666667   0.8511905  )
        35           Cu  tau(  35) = (   0.3333333   0.6666667   0.8511905  )
        36           Cu  tau(  36) = (   0.6666667   0.6666667   0.8511905  )
        37           Cu  tau(  37) = (   0.1666667   0.8333333   0.1964286  )
        38           Cu  tau(  38) = (   0.5000000   0.8333333   0.1964286  )
        39           Cu  tau(  39) = (   0.8333333   0.8333333   0.1964286  )
        40           Cu  tau(  40) = (   0.1666667   0.1666667   0.1964286  )
        41           Cu  tau(  41) = (   0.5000000   0.1666667   0.1964286  )
        42           Cu  tau(  42) = (   0.8333333   0.1666667   0.1964286  )
        43           Cu  tau(  43) = (   0.1666667   0.5000000   0.1964286  )
        44           Cu  tau(  44) = (   0.5000000   0.5000000   0.1964286  )
        45           Cu  tau(  45) = (   0.8333333   0.5000000   0.1964286  )
        46           Cu  tau(  46) = (   0.1666667   0.8333333   0.4583333  )
        47           Cu  tau(  47) = (   0.5000000   0.8333333   0.4583333  )
        48           Cu  tau(  48) = (   0.8333333   0.8333333   0.4583333  )
        49           Cu  tau(  49) = (   0.1666667   0.1666667   0.4583333  )
        50           Cu  tau(  50) = (   0.5000000   0.1666667   0.4583333  )
        51           Cu  tau(  51) = (   0.8333333   0.1666667   0.4583333  )
        52           Cu  tau(  52) = (   0.1666667   0.5000000   0.4583333  )
        53           Cu  tau(  53) = (   0.5000000   0.5000000   0.4583333  )
        54           Cu  tau(  54) = (   0.8333333   0.5000000   0.4583333  )
        55           Cu  tau(  55) = (   0.1666667   0.8333333   0.7202381  )
        56           Cu  tau(  56) = (   0.5000000   0.8333333   0.7202381  )
        57           Cu  tau(  57) = (   0.8333333   0.8333333   0.7202381  )
        58           Cu  tau(  58) = (   0.1666667   0.1666667   0.7202381  )
        59           Cu  tau(  59) = (   0.5000000   0.1666667   0.7202381  )
        60           Cu  tau(  60) = (   0.8333333   0.1666667   0.7202381  )
        61           Cu  tau(  61) = (   0.1666667   0.5000000   0.7202381  )
        62           Cu  tau(  62) = (   0.5000000   0.5000000   0.7202381  )
        63           Cu  tau(  63) = (   0.8333333   0.5000000   0.7202381  )
        64           Cu  tau(  64) = (   0.1666667   0.8333333   0.9821429  )
        65           Cu  tau(  65) = (   0.5000000   0.8333333   0.9821429  )
        66           Cu  tau(  66) = (   0.8333333   0.8333333   0.9821429  )
        67           Cu  tau(  67) = (   0.1666667   0.1666667   0.9821429  )
        68           Cu  tau(  68) = (   0.5000000   0.1666667   0.9821429  )
        69           Cu  tau(  69) = (   0.8333333   0.1666667   0.9821429  )
        70           Cu  tau(  70) = (   0.1666667   0.5000000   0.9821429  )
        71           Cu  tau(  71) = (   0.5000000   0.5000000   0.9821429  )
        72           Cu  tau(  72) = (   0.8333333   0.5000000   0.9821429  )
        73           Cu  tau(  73) = (   0.0000000   0.0000000   0.9821429  )
        74           Cu  tau(  74) = (   0.3333333   0.0000000   0.9821429  )
        75           Cu  tau(  75) = (   0.6666667   0.0000000   0.9821429  )
        76           Cu  tau(  76) = (   0.0000000   0.3333333   0.9821429  )
        77           Cu  tau(  77) = (   0.3333333   0.3333333   0.9821429  )
        78           Cu  tau(  78) = (   0.6666667   0.3333333   0.9821429  )
        79           Cu  tau(  79) = (   0.0000000   0.6666667   0.9821429  )
        80           Cu  tau(  80) = (   0.3333333   0.6666667   0.9821429  )
        81           Cu  tau(  81) = (   0.6666667   0.6666667   0.9821429  )
        82           Cu  tau(  82) = (   0.0000000   0.0000000   0.1964286  )
        83           Cu  tau(  83) = (   0.3333333   0.0000000   0.1964286  )
        84           Cu  tau(  84) = (   0.6666667   0.0000000   0.1964286  )
        85           Cu  tau(  85) = (   0.0000000   0.3333333   0.1964286  )
        86           Cu  tau(  86) = (   0.3333333   0.3333333   0.1964286  )
        87           Cu  tau(  87) = (   0.6666667   0.3333333   0.1964286  )
        88           Cu  tau(  88) = (   0.0000000   0.6666667   0.1964286  )
        89           Cu  tau(  89) = (   0.3333333   0.6666667   0.1964286  )
        90           Cu  tau(  90) = (   0.6666667   0.6666667   0.1964286  )
        91           Cu  tau(  91) = (   0.0000000   0.0000000   0.4583333  )
        92           Cu  tau(  92) = (   0.3333333   0.0000000   0.4583333  )
        93           Cu  tau(  93) = (   0.6666667   0.0000000   0.4583333  )
        94           Cu  tau(  94) = (   0.0000000   0.3333333   0.4583333  )
        95           Cu  tau(  95) = (   0.3333333   0.3333333   0.4583333  )
        96           Cu  tau(  96) = (   0.6666667   0.3333333   0.4583333  )
        97           Cu  tau(  97) = (   0.0000000   0.6666667   0.4583333  )
        98           Cu  tau(  98) = (   0.3333333   0.6666667   0.4583333  )
        99           Cu  tau(  99) = (   0.6666667   0.6666667   0.4583333  )
       100           Cu  tau( 100) = (   0.0000000   0.0000000   0.7202381  )
       101           Cu  tau( 101) = (   0.3333333   0.0000000   0.7202381  )
       102           Cu  tau( 102) = (   0.6666667   0.0000000   0.7202381  )
       103           Cu  tau( 103) = (   0.0000000   0.3333333   0.7202381  )
       104           Cu  tau( 104) = (   0.3333333   0.3333333   0.7202381  )
       105           Cu  tau( 105) = (   0.6666667   0.3333333   0.7202381  )
       106           Cu  tau( 106) = (   0.0000000   0.6666667   0.7202381  )
       107           Cu  tau( 107) = (   0.3333333   0.6666667   0.7202381  )
       108           Cu  tau( 108) = (   0.6666667   0.6666667   0.7202381  )
       109           Cu  tau( 109) = (   0.1666667   0.8333333   0.0654762  )
       110           Cu  tau( 110) = (   0.5000000   0.8333333   0.0654762  )
       111           Cu  tau( 111) = (   0.8333333   0.8333333   0.0654762  )
       112           Cu  tau( 112) = (   0.1666667   0.1666667   0.0654762  )
       113           Cu  tau( 113) = (   0.5000000   0.1666667   0.0654762  )
       114           Cu  tau( 114) = (   0.8333333   0.1666667   0.0654762  )
       115           Cu  tau( 115) = (   0.1666667   0.5000000   0.0654762  )
       116           Cu  tau( 116) = (   0.5000000   0.5000000   0.0654762  )
       117           Cu  tau( 117) = (   0.8333333   0.5000000   0.0654762  )
       118           Cu  tau( 118) = (   0.1666667   0.8333333   0.3273810  )
       119           Cu  tau( 119) = (   0.5000000   0.8333333   0.3273810  )
       120           Cu  tau( 120) = (   0.8333333   0.8333333   0.3273810  )
       121           Cu  tau( 121) = (   0.1666667   0.1666667   0.3273810  )
       122           Cu  tau( 122) = (   0.5000000   0.1666667   0.3273810  )
       123           Cu  tau( 123) = (   0.8333333   0.1666667   0.3273810  )
       124           Cu  tau( 124) = (   0.1666667   0.5000000   0.3273810  )
       125           Cu  tau( 125) = (   0.5000000   0.5000000   0.3273810  )
       126           Cu  tau( 126) = (   0.8333333   0.5000000   0.3273810  )
       127           Cu  tau( 127) = (   0.1666667   0.8333333   0.5892857  )
       128           Cu  tau( 128) = (   0.5000000   0.8333333   0.5892857  )
       129           Cu  tau( 129) = (   0.8333333   0.8333333   0.5892857  )
       130           Cu  tau( 130) = (   0.1666667   0.1666667   0.5892857  )
       131           Cu  tau( 131) = (   0.5000000   0.1666667   0.5892857  )
       132           Cu  tau( 132) = (   0.8333333   0.1666667   0.5892857  )
       133           Cu  tau( 133) = (   0.1666667   0.5000000   0.5892857  )
       134           Cu  tau( 134) = (   0.5000000   0.5000000   0.5892857  )
       135           Cu  tau( 135) = (   0.8333333   0.5000000   0.5892857  )
       136           Cu  tau( 136) = (   0.1666667   0.8333333   0.8511905  )
       137           Cu  tau( 137) = (   0.5000000   0.8333333   0.8511905  )
       138           Cu  tau( 138) = (   0.8333333   0.8333333   0.8511905  )
       139           Cu  tau( 139) = (   0.1666667   0.1666667   0.8511905  )
       140           Cu  tau( 140) = (   0.5000000   0.1666667   0.8511905  )
       141           Cu  tau( 141) = (   0.8333333   0.1666667   0.8511905  )
       142           Cu  tau( 142) = (   0.1666667   0.5000000   0.8511905  )
       143           Cu  tau( 143) = (   0.5000000   0.5000000   0.8511905  )
       144           Cu  tau( 144) = (   0.8333333   0.5000000   0.8511905  )
       145           In  tau( 145) = (   0.0534447   0.2193973   0.0007481  )
       146           In  tau( 146) = (   0.3860640   0.2193973   0.0000000  )
       147           In  tau( 147) = (   0.7193973   0.2193973   0.0000000  )
       148           In  tau( 148) = (   0.0527307   0.5527307   0.0000000  )
       149           In  tau( 149) = (   0.3860640   0.5527307   0.0000000  )
       150           In  tau( 150) = (   0.7193973   0.5527307   0.0000000  )
       151           In  tau( 151) = (   0.0527307   0.8860640   0.0000000  )
       152           In  tau( 152) = (   0.3860640   0.8860640   0.0000000  )
       153           In  tau( 153) = (   0.7193973   0.8860640   0.0000000  )
       154           In  tau( 154) = (   0.0527307   0.2193973   0.2619048  )
       155           In  tau( 155) = (   0.3860640   0.2193973   0.2619048  )
       156           In  tau( 156) = (   0.7193973   0.2193973   0.2619048  )
       157           In  tau( 157) = (   0.0527307   0.5527307   0.2619048  )
       158           In  tau( 158) = (   0.3860640   0.5527307   0.2619048  )
       159           In  tau( 159) = (   0.7193973   0.5527307   0.2619048  )
       160           In  tau( 160) = (   0.0527307   0.8860640   0.2619048  )
       161           In  tau( 161) = (   0.3860640   0.8860640   0.2619048  )
       162           In  tau( 162) = (   0.7193973   0.8860640   0.2619048  )
       163           In  tau( 163) = (   0.0527307   0.2193973   0.5238095  )
       164           In  tau( 164) = (   0.3860640   0.2193973   0.5238095  )
       165           In  tau( 165) = (   0.7193973   0.2193973   0.5238095  )
       166           In  tau( 166) = (   0.0527307   0.5527307   0.5238095  )
       167           In  tau( 167) = (   0.3860640   0.5527307   0.5238095  )
       168           In  tau( 168) = (   0.7193973   0.5527307   0.5238095  )
       169           In  tau( 169) = (   0.0527307   0.8860640   0.5238095  )
       170           In  tau( 170) = (   0.3860640   0.8860640   0.5238095  )
       171           In  tau( 171) = (   0.7193973   0.8860640   0.5238095  )
       172           In  tau( 172) = (   0.0527307   0.2193973   0.7857143  )
       173           In  tau( 173) = (   0.3860640   0.2193973   0.7857143  )
       174           In  tau( 174) = (   0.7193973   0.2193973   0.7857143  )
       175           In  tau( 175) = (   0.0527307   0.5527307   0.7857143  )
       176           In  tau( 176) = (   0.3860640   0.5527307   0.7857143  )
       177           In  tau( 177) = (   0.7193973   0.5527307   0.7857143  )
       178           In  tau( 178) = (   0.0527307   0.8860640   0.7857143  )
       179           In  tau( 179) = (   0.3860640   0.8860640   0.7857143  )
       180           In  tau( 180) = (   0.7193973   0.8860640   0.7857143  )
       181           In  tau( 181) = (   0.2193973   0.0527307   0.1309524  )
       182           In  tau( 182) = (   0.5527307   0.0527307   0.1309524  )
       183           In  tau( 183) = (   0.8860640   0.0527307   0.1309524  )
       184           In  tau( 184) = (   0.2193973   0.3860640   0.1309524  )
       185           In  tau( 185) = (   0.5527307   0.3860640   0.1309524  )
       186           In  tau( 186) = (   0.8860640   0.3860640   0.1309524  )
       187           In  tau( 187) = (   0.2193973   0.7193973   0.1309524  )
       188           In  tau( 188) = (   0.5527307   0.7193973   0.1309524  )
       189           In  tau( 189) = (   0.8860640   0.7193973   0.1309524  )
       190           In  tau( 190) = (   0.2193973   0.0527307   0.3928572  )
       191           In  tau( 191) = (   0.5527307   0.0527307   0.3928572  )
       192           In  tau( 192) = (   0.8860640   0.0527307   0.3928572  )
       193           In  tau( 193) = (   0.2193973   0.3860640   0.3928572  )
       194           In  tau( 194) = (   0.5527307   0.3860640   0.3928572  )
       195           In  tau( 195) = (   0.8860640   0.3860640   0.3928572  )
       196           In  tau( 196) = (   0.2193973   0.7193973   0.3928572  )
       197           In  tau( 197) = (   0.5527307   0.7193973   0.3928572  )
       198           In  tau( 198) = (   0.8860640   0.7193973   0.3928572  )
       199           In  tau( 199) = (   0.2193973   0.0527307   0.6547619  )
       200           In  tau( 200) = (   0.5527307   0.0527307   0.6547619  )
       201           In  tau( 201) = (   0.8860640   0.0527307   0.6547619  )
       202           In  tau( 202) = (   0.2193973   0.3860640   0.6547619  )
       203           In  tau( 203) = (   0.5527307   0.3860640   0.6547619  )
       204           In  tau( 204) = (   0.8860640   0.3860640   0.6547619  )
       205           In  tau( 205) = (   0.2193973   0.7193973   0.6547619  )
       206           In  tau( 206) = (   0.5527307   0.7193973   0.6547619  )
       207           In  tau( 207) = (   0.8860640   0.7193973   0.6547619  )
       208           In  tau( 208) = (   0.2193973   0.0527307   0.9166667  )
       209           In  tau( 209) = (   0.5527307   0.0527307   0.9166667  )
       210           In  tau( 210) = (   0.8860640   0.0527307   0.9166667  )
       211           In  tau( 211) = (   0.2193973   0.3860640   0.9166667  )
       212           In  tau( 212) = (   0.5527307   0.3860640   0.9166667  )
       213           In  tau( 213) = (   0.8860640   0.3860640   0.9166667  )
       214           In  tau( 214) = (   0.2193973   0.7193973   0.9166667  )
       215           In  tau( 215) = (   0.5527307   0.7193973   0.9166667  )
       216           In  tau( 216) = (   0.8860640   0.7193973   0.9166667  )
       217           In  tau( 217) = (   0.9472693   0.1139360   0.0000000  )
       218           In  tau( 218) = (   0.2806027   0.1139360   0.0000000  )
       219           In  tau( 219) = (   0.6139360   0.1139360   0.0000000  )
       220           In  tau( 220) = (   0.9472693   0.4472693   0.0000000  )
       221           In  tau( 221) = (   0.2806027   0.4472693   0.0000000  )
       222           In  tau( 222) = (   0.6139360   0.4472693   0.0000000  )
       223           In  tau( 223) = (   0.9472693   0.7806027   0.0000000  )
       224           In  tau( 224) = (   0.2806027   0.7806027   0.0000000  )
       225           In  tau( 225) = (   0.6139360   0.7806027   0.0000000  )
       226           In  tau( 226) = (   0.9472693   0.1139360   0.2619048  )
       227           In  tau( 227) = (   0.2806027   0.1139360   0.2619048  )
       228           In  tau( 228) = (   0.6139360   0.1139360   0.2619048  )
       229           In  tau( 229) = (   0.9472693   0.4472693   0.2619048  )
       230           In  tau( 230) = (   0.2806027   0.4472693   0.2619048  )
       231           In  tau( 231) = (   0.6139360   0.4472693   0.2619048  )
       232           In  tau( 232) = (   0.9472693   0.7806027   0.2619048  )
       233           In  tau( 233) = (   0.2806027   0.7806027   0.2619048  )
       234           In  tau( 234) = (   0.6139360   0.7806027   0.2619048  )
       235           In  tau( 235) = (   0.9472693   0.1139360   0.5238095  )
       236           In  tau( 236) = (   0.2806027   0.1139360   0.5238095  )
       237           In  tau( 237) = (   0.6139360   0.1139360   0.5238095  )
       238           In  tau( 238) = (   0.9472693   0.4472693   0.5238095  )
       239           In  tau( 239) = (   0.2806027   0.4472693   0.5238095  )
       240           In  tau( 240) = (   0.6139360   0.4472693   0.5238095  )
       241           In  tau( 241) = (   0.9472693   0.7806027   0.5238095  )
       242           In  tau( 242) = (   0.2806027   0.7806027   0.5238095  )
       243           In  tau( 243) = (   0.6139360   0.7806027   0.5238095  )
       244           In  tau( 244) = (   0.9472693   0.1139360   0.7857143  )
       245           In  tau( 245) = (   0.2806027   0.1139360   0.7857143  )
       246           In  tau( 246) = (   0.6139360   0.1139360   0.7857143  )
       247           In  tau( 247) = (   0.9472693   0.4472693   0.7857143  )
       248           In  tau( 248) = (   0.2806027   0.4472693   0.7857143  )
       249           In  tau( 249) = (   0.6139360   0.4472693   0.7857143  )
       250           In  tau( 250) = (   0.9472693   0.7806027   0.7857143  )
       251           In  tau( 251) = (   0.2806027   0.7806027   0.7857143  )
       252           In  tau( 252) = (   0.6139360   0.7806027   0.7857143  )
       253           In  tau( 253) = (   0.1139360   0.9472693   0.1309524  )
       254           In  tau( 254) = (   0.4472693   0.9472693   0.1309524  )
       255           In  tau( 255) = (   0.7806027   0.9472693   0.1309524  )
       256           In  tau( 256) = (   0.1139360   0.2806027   0.1309524  )
       257           In  tau( 257) = (   0.4472693   0.2806027   0.1309524  )
       258           In  tau( 258) = (   0.7806027   0.2806027   0.1309524  )
       259           In  tau( 259) = (   0.1139360   0.6139360   0.1309524  )
       260           In  tau( 260) = (   0.4472693   0.6139360   0.1309524  )
       261           In  tau( 261) = (   0.7806027   0.6139360   0.1309524  )
       262           In  tau( 262) = (   0.1139360   0.9472693   0.3928572  )
       263           In  tau( 263) = (   0.4472693   0.9472693   0.3928572  )
       264           In  tau( 264) = (   0.7806027   0.9472693   0.3928572  )
       265           In  tau( 265) = (   0.1139360   0.2806027   0.3928572  )
       266           In  tau( 266) = (   0.4472693   0.2806027   0.3928572  )
       267           In  tau( 267) = (   0.7806027   0.2806027   0.3928572  )
       268           In  tau( 268) = (   0.1139360   0.6139360   0.3928572  )
       269           In  tau( 269) = (   0.4472693   0.6139360   0.3928572  )
       270           In  tau( 270) = (   0.7806027   0.6139360   0.3928572  )
       271           In  tau( 271) = (   0.1139360   0.9472693   0.6547619  )
       272           In  tau( 272) = (   0.4472693   0.9472693   0.6547619  )
       273           In  tau( 273) = (   0.7806027   0.9472693   0.6547619  )
       274           In  tau( 274) = (   0.1139360   0.2806027   0.6547619  )
       275           In  tau( 275) = (   0.4472693   0.2806027   0.6547619  )
       276           In  tau( 276) = (   0.7806027   0.2806027   0.6547619  )
       277           In  tau( 277) = (   0.1139360   0.6139360   0.6547619  )
       278           In  tau( 278) = (   0.4472693   0.6139360   0.6547619  )
       279           In  tau( 279) = (   0.7806027   0.6139360   0.6547619  )
       280           In  tau( 280) = (   0.1139360   0.9472693   0.9166667  )
       281           In  tau( 281) = (   0.4472693   0.9472693   0.9166667  )
       282           In  tau( 282) = (   0.7806027   0.9472693   0.9166667  )
       283           In  tau( 283) = (   0.1139360   0.2806027   0.9166667  )
       284           In  tau( 284) = (   0.4472693   0.2806027   0.9166667  )
       285           In  tau( 285) = (   0.7806027   0.2806027   0.9166667  )
       286           In  tau( 286) = (   0.1139360   0.6139360   0.9166667  )
       287           In  tau( 287) = (   0.4472693   0.6139360   0.9166667  )
       288           In  tau( 288) = (   0.7806027   0.6139360   0.9166667  )
       289           In  tau( 289) = (   0.1139360   0.0527307   0.0000000  )
       290           In  tau( 290) = (   0.4472693   0.0527307   0.0000000  )
       291           In  tau( 291) = (   0.7806027   0.0527307   0.0000000  )
       292           In  tau( 292) = (   0.1139360   0.3860640   0.0000000  )
       293           In  tau( 293) = (   0.4472693   0.3860640   0.0000000  )
       294           In  tau( 294) = (   0.7806027   0.3860640   0.0000000  )
       295           In  tau( 295) = (   0.1139360   0.7193973   0.0000000  )
       296           In  tau( 296) = (   0.4472693   0.7193973   0.0000000  )
       297           In  tau( 297) = (   0.7806027   0.7193973   0.0000000  )
       298           In  tau( 298) = (   0.1139360   0.0527307   0.2619048  )
       299           In  tau( 299) = (   0.4472693   0.0527307   0.2619048  )
       300           In  tau( 300) = (   0.7806027   0.0527307   0.2619048  )
       301           In  tau( 301) = (   0.1139360   0.3860640   0.2619048  )
       302           In  tau( 302) = (   0.4472693   0.3860640   0.2619048  )
       303           In  tau( 303) = (   0.7806027   0.3860640   0.2619048  )
       304           In  tau( 304) = (   0.1139360   0.7193973   0.2619048  )
       305           In  tau( 305) = (   0.4472693   0.7193973   0.2619048  )
       306           In  tau( 306) = (   0.7806027   0.7193973   0.2619048  )
       307           In  tau( 307) = (   0.1139360   0.0527307   0.5238095  )
       308           In  tau( 308) = (   0.4472693   0.0527307   0.5238095  )
       309           In  tau( 309) = (   0.7806027   0.0527307   0.5238095  )
       310           In  tau( 310) = (   0.1139360   0.3860640   0.5238095  )
       311           In  tau( 311) = (   0.4472693   0.3860640   0.5238095  )
       312           In  tau( 312) = (   0.7806027   0.3860640   0.5238095  )
       313           In  tau( 313) = (   0.1139360   0.7193973   0.5238095  )
       314           In  tau( 314) = (   0.4472693   0.7193973   0.5238095  )
       315           In  tau( 315) = (   0.7806027   0.7193973   0.5238095  )
       316           In  tau( 316) = (   0.1139360   0.0527307   0.7857143  )
       317           In  tau( 317) = (   0.4472693   0.0527307   0.7857143  )
       318           In  tau( 318) = (   0.7806027   0.0527307   0.7857143  )
       319           In  tau( 319) = (   0.1139360   0.3860640   0.7857143  )
       320           In  tau( 320) = (   0.4472693   0.3860640   0.7857143  )
       321           In  tau( 321) = (   0.7806027   0.3860640   0.7857143  )
       322           In  tau( 322) = (   0.1139360   0.7193973   0.7857143  )
       323           In  tau( 323) = (   0.4472693   0.7193973   0.7857143  )
       324           In  tau( 324) = (   0.7806027   0.7193973   0.7857143  )
       325           In  tau( 325) = (   0.2806027   0.8860640   0.1309524  )
       326           In  tau( 326) = (   0.6139360   0.8860640   0.1309524  )
       327           In  tau( 327) = (   0.9472693   0.8860640   0.1309524  )
       328           In  tau( 328) = (   0.2806027   0.2193973   0.1309524  )
       329           In  tau( 329) = (   0.6139360   0.2193973   0.1309524  )
       330           In  tau( 330) = (   0.9472693   0.2193973   0.1309524  )
       331           In  tau( 331) = (   0.2806027   0.5527307   0.1309524  )
       332           In  tau( 332) = (   0.6139360   0.5527307   0.1309524  )
       333           In  tau( 333) = (   0.9472693   0.5527307   0.1309524  )
       334           In  tau( 334) = (   0.2806027   0.8860640   0.3928572  )
       335           In  tau( 335) = (   0.6139360   0.8860640   0.3928572  )
       336           In  tau( 336) = (   0.9472693   0.8860640   0.3928572  )
       337           In  tau( 337) = (   0.2806027   0.2193973   0.3928572  )
       338           In  tau( 338) = (   0.6139360   0.2193973   0.3928572  )
       339           In  tau( 339) = (   0.9472693   0.2193973   0.3928572  )
       340           In  tau( 340) = (   0.2806027   0.5527307   0.3928572  )
       341           In  tau( 341) = (   0.6139360   0.5527307   0.3928572  )
       342           In  tau( 342) = (   0.9472693   0.5527307   0.3928572  )
       343           In  tau( 343) = (   0.2806027   0.8860640   0.6547619  )
       344           In  tau( 344) = (   0.6139360   0.8860640   0.6547619  )
       345           In  tau( 345) = (   0.9472693   0.8860640   0.6547619  )
       346           In  tau( 346) = (   0.2806027   0.2193973   0.6547619  )
       347           In  tau( 347) = (   0.6139360   0.2193973   0.6547619  )
       348           In  tau( 348) = (   0.9472693   0.2193973   0.6547619  )
       349           In  tau( 349) = (   0.2806027   0.5527307   0.6547619  )
       350           In  tau( 350) = (   0.6139360   0.5527307   0.6547619  )
       351           In  tau( 351) = (   0.9472693   0.5527307   0.6547619  )
       352           In  tau( 352) = (   0.2806027   0.8860640   0.9166667  )
       353           In  tau( 353) = (   0.6139360   0.8860640   0.9166667  )
       354           In  tau( 354) = (   0.9472693   0.8860640   0.9166667  )
       355           In  tau( 355) = (   0.2806027   0.2193973   0.9166667  )
       356           In  tau( 356) = (   0.6139360   0.2193973   0.9166667  )
       357           In  tau( 357) = (   0.9472693   0.2193973   0.9166667  )
       358           In  tau( 358) = (   0.2806027   0.5527307   0.9166667  )
       359           In  tau( 359) = (   0.6139360   0.5527307   0.9166667  )
       360           In  tau( 360) = (   0.9472693   0.5527307   0.9166667  )
       361           In  tau( 361) = (   0.2193973   0.9472693   0.0000000  )
       362           In  tau( 362) = (   0.5527307   0.9472693   0.0000000  )
       363           In  tau( 363) = (   0.8860640   0.9472693   0.0000000  )
       364           In  tau( 364) = (   0.2193973   0.2806027   0.0000000  )
       365           In  tau( 365) = (   0.5527307   0.2806027   0.0000000  )
       366           In  tau( 366) = (   0.8860640   0.2806027   0.0000000  )
       367           In  tau( 367) = (   0.2193973   0.6139360   0.0000000  )
       368           In  tau( 368) = (   0.5527307   0.6139360   0.0000000  )
       369           In  tau( 369) = (   0.8860640   0.6139360   0.0000000  )
       370           In  tau( 370) = (   0.2193973   0.9472693   0.2619048  )
       371           In  tau( 371) = (   0.5527307   0.9472693   0.2619048  )
       372           In  tau( 372) = (   0.8860640   0.9472693   0.2619048  )
       373           In  tau( 373) = (   0.2193973   0.2806027   0.2619048  )
       374           In  tau( 374) = (   0.5527307   0.2806027   0.2619048  )
       375           In  tau( 375) = (   0.8860640   0.2806027   0.2619048  )
       376           In  tau( 376) = (   0.2193973   0.6139360   0.2619048  )
       377           In  tau( 377) = (   0.5527307   0.6139360   0.2619048  )
       378           In  tau( 378) = (   0.8860640   0.6139360   0.2619048  )
       379           In  tau( 379) = (   0.2193973   0.9472693   0.5238095  )
       380           In  tau( 380) = (   0.5527307   0.9472693   0.5238095  )
       381           In  tau( 381) = (   0.8860640   0.9472693   0.5238095  )
       382           In  tau( 382) = (   0.2193973   0.2806027   0.5238095  )
       383           In  tau( 383) = (   0.5527307   0.2806027   0.5238095  )
       384           In  tau( 384) = (   0.8860640   0.2806027   0.5238095  )
       385           In  tau( 385) = (   0.2193973   0.6139360   0.5238095  )
       386           In  tau( 386) = (   0.5527307   0.6139360   0.5238095  )
       387           In  tau( 387) = (   0.8860640   0.6139360   0.5238095  )
       388           In  tau( 388) = (   0.2193973   0.9472693   0.7857143  )
       389           In  tau( 389) = (   0.5527307   0.9472693   0.7857143  )
       390           In  tau( 390) = (   0.8860640   0.9472693   0.7857143  )
       391           In  tau( 391) = (   0.2193973   0.2806027   0.7857143  )
       392           In  tau( 392) = (   0.5527307   0.2806027   0.7857143  )
       393           In  tau( 393) = (   0.8860640   0.2806027   0.7857143  )
       394           In  tau( 394) = (   0.2193973   0.6139360   0.7857143  )
       395           In  tau( 395) = (   0.5527307   0.6139360   0.7857143  )
       396           In  tau( 396) = (   0.8860640   0.6139360   0.7857143  )
       397           In  tau( 397) = (   0.0527307   0.7806027   0.1309524  )
       398           In  tau( 398) = (   0.3860640   0.7806027   0.1309524  )
       399           In  tau( 399) = (   0.7193973   0.7806027   0.1309524  )
       400           In  tau( 400) = (   0.0527307   0.1139360   0.1309524  )
       401           In  tau( 401) = (   0.3860640   0.1139360   0.1309524  )
       402           In  tau( 402) = (   0.7193973   0.1139360   0.1309524  )
       403           In  tau( 403) = (   0.0527307   0.4472693   0.1309524  )
       404           In  tau( 404) = (   0.3860640   0.4472693   0.1309524  )
       405           In  tau( 405) = (   0.7193973   0.4472693   0.1309524  )
       406           In  tau( 406) = (   0.0527307   0.7806027   0.3928572  )
       407           In  tau( 407) = (   0.3860640   0.7806027   0.3928572  )
       408           In  tau( 408) = (   0.7193973   0.7806027   0.3928572  )
       409           In  tau( 409) = (   0.0527307   0.1139360   0.3928572  )
       410           In  tau( 410) = (   0.3860640   0.1139360   0.3928572  )
       411           In  tau( 411) = (   0.7193973   0.1139360   0.3928572  )
       412           In  tau( 412) = (   0.0527307   0.4472693   0.3928572  )
       413           In  tau( 413) = (   0.3860640   0.4472693   0.3928572  )
       414           In  tau( 414) = (   0.7193973   0.4472693   0.3928572  )
       415           In  tau( 415) = (   0.0527307   0.7806027   0.6547619  )
       416           In  tau( 416) = (   0.3860640   0.7806027   0.6547619  )
       417           In  tau( 417) = (   0.7193973   0.7806027   0.6547619  )
       418           In  tau( 418) = (   0.0527307   0.1139360   0.6547619  )
       419           In  tau( 419) = (   0.3860640   0.1139360   0.6547619  )
       420           In  tau( 420) = (   0.7193973   0.1139360   0.6547619  )
       421           In  tau( 421) = (   0.0527307   0.4472693   0.6547619  )
       422           In  tau( 422) = (   0.3860640   0.4472693   0.6547619  )
       423           In  tau( 423) = (   0.7193973   0.4472693   0.6547619  )
       424           In  tau( 424) = (   0.0527307   0.7806027   0.9166667  )
       425           In  tau( 425) = (   0.3860640   0.7806027   0.9166667  )
       426           In  tau( 426) = (   0.7193973   0.7806027   0.9166667  )
       427           In  tau( 427) = (   0.0527307   0.1139360   0.9166667  )
       428           In  tau( 428) = (   0.3860640   0.1139360   0.9166667  )
       429           In  tau( 429) = (   0.7193973   0.1139360   0.9166667  )
       430           In  tau( 430) = (   0.0527307   0.4472693   0.9166667  )
       431           In  tau( 431) = (   0.3860640   0.4472693   0.9166667  )
       432           In  tau( 432) = (   0.7193973   0.4472693   0.9166667  )

     number of k points=     4
                       cart. coord. in units 2pi/alat
        k(    1) = (   0.2500000   0.2500000   0.2386364), wk =   0.5000000
        k(    2) = (  -0.2500000  -0.2500000   0.2386364), wk =   0.5000000
        k(    3) = (  -0.2500000   0.2500000  -0.2386364), wk =   0.5000000
        k(    4) = (   0.2500000  -0.2500000  -0.2386364), wk =   0.5000000

     Dense  grid:   475803 G-vectors     FFT dimensions: (  96,  96, 100)

     Estimated max dynamical RAM per process >      34.71 GB

     Initial potential from superposition of free atoms

     starting charge    5326.8959, renormalised to    5328.0000
     Starting wfcs are 3888 randomized atomic wfcs

     total cpu time spent up to now is     9452.9 secs

     Self-consistent Calculation

     iteration #  1     ecut=    60.00 Ry     beta= 0.70
     Davidson diagonalization with overlap
     ethr =  1.00E-02,  avg # of iterations = 12.2

     total cpu time spent up to now is    48863.7 secs

     total energy              =  -52654.13045167 Ry
     estimated scf accuracy    <     247.51006711 Ry

     iteration #  2     ecut=    60.00 Ry     beta= 0.70
     Davidson diagonalization with overlap
     ethr =  4.65E-03,  avg # of iterations =  4.5

     total cpu time spent up to now is    78444.5 secs

     total energy              =  -52715.27091500 Ry
     estimated scf accuracy    <      49.55702316 Ry

     iteration #  3     ecut=    60.00 Ry     beta= 0.70
     Davidson diagonalization with overlap
     c_bands:  5 eigenvalues not converged
     ethr =  9.30E-04,  avg # of iterations = 22.8

     total cpu time spent up to now is   125386.2 secs

     total energy              =  -52731.13251136 Ry
     estimated scf accuracy    <       6.44671477 Ry

     iteration #  4     ecut=    60.00 Ry     beta= 0.70
     Davidson diagonalization with overlap
     ethr =  1.21E-04,  avg # of iterations = 17.2

     total cpu time spent up to now is   168151.6 secs

     total energy              =  -52721.04513316 Ry
     estimated scf accuracy    <     439.30739075 Ry

     iteration #  5     ecut=    60.00 Ry     beta= 0.70
     Davidson diagonalization with overlap
     ethr =  1.21E-04,  avg # of iterations = 22.0

     total cpu time spent up to now is   226442.0 secs

     total energy              =  -52732.27546966 Ry
     estimated scf accuracy    <      60.85898479 Ry

     iteration #  6     ecut=    60.00 Ry     beta= 0.70
     Davidson diagonalization with overlap
     ethr =  1.21E-04,  avg # of iterations = 18.2

     total cpu time spent up to now is   259119.3 secs

     total energy              =  -52733.82654036 Ry
     estimated scf accuracy    <      16.64405540 Ry

     iteration #  7     ecut=    60.00 Ry     beta= 0.70
     Davidson diagonalization with overlap
     ethr =  1.21E-04,  avg # of iterations = 15.2

     total cpu time spent up to now is   289657.4 secs

     total energy              =  -52731.27956684 Ry
     estimated scf accuracy    <     175.03644085 Ry

     iteration #  8     ecut=    60.00 Ry     beta= 0.70
     Davidson diagonalization with overlap
     ethr =  1.21E-04,  avg # of iterations = 17.8

     total cpu time spent up to now is   322687.6 secs

     total energy              =  -52734.76430723 Ry
     estimated scf accuracy    <       6.46063134 Ry

     iteration #  9     ecut=    60.00 Ry     beta= 0.70
     Davidson diagonalization with overlap
     ethr =  1.21E-04,  avg # of iterations = 17.2

     total cpu time spent up to now is   348046.3 secs

     total energy              =  -52735.01140053 Ry
     estimated scf accuracy    <       0.74327338 Ry

     iteration # 10     ecut=    60.00 Ry     beta= 0.70
     Davidson diagonalization with overlap
     c_bands:  1 eigenvalues not converged
     c_bands:  1 eigenvalues not converged
     c_bands:  1 eigenvalues not converged
     c_bands:  1 eigenvalues not converged
     ethr =  1.40E-05,  avg # of iterations = 20.0

     total cpu time spent up to now is   381654.8 secs

     total energy              =  -52735.07358805 Ry
     estimated scf accuracy    <       2.09262679 Ry

     iteration # 11     ecut=    60.00 Ry     beta= 0.70
     Davidson diagonalization with overlap
     c_bands:  2 eigenvalues not converged
     c_bands:  1 eigenvalues not converged
     c_bands:  1 eigenvalues not converged
     c_bands:  1 eigenvalues not converged
     ethr =  1.40E-05,  avg # of iterations = 20.0

     total cpu time spent up to now is   412834.2 secs

     total energy              =  -52735.12123791 Ry
     estimated scf accuracy    <       1.36084708 Ry

     iteration # 12     ecut=    60.00 Ry     beta= 0.70
     Davidson diagonalization with overlap
     ethr =  1.40E-05,  avg # of iterations = 18.0

     total cpu time spent up to now is   440300.8 secs

     total energy              =  -52735.14290748 Ry
     estimated scf accuracy    <       0.86346784 Ry

     iteration # 13     ecut=    60.00 Ry     beta= 0.70
     Davidson diagonalization with overlap
     c_bands:  1 eigenvalues not converged
     c_bands:  1 eigenvalues not converged
     c_bands:  1 eigenvalues not converged
     c_bands:  1 eigenvalues not converged
     ethr =  1.40E-05,  avg # of iterations = 20.0

     total cpu time spent up to now is   466333.0 secs

     total energy              =  -52735.14793600 Ry
     estimated scf accuracy    <       0.48125295 Ry

     iteration # 14     ecut=    60.00 Ry     beta= 0.70
     Davidson diagonalization with overlap
     c_bands:  1 eigenvalues not converged
     c_bands:  1 eigenvalues not converged
     c_bands:  1 eigenvalues not converged
     c_bands:  1 eigenvalues not converged
     ethr =  9.03E-06,  avg # of iterations = 20.0

     total cpu time spent up to now is   494748.3 secs

     total energy              =  -52735.12439126 Ry
     estimated scf accuracy    <       0.99752895 Ry

     iteration # 15     ecut=    60.00 Ry     beta= 0.70
     Davidson diagonalization with overlap
     c_bands:  1 eigenvalues not converged
     c_bands:  1 eigenvalues not converged
     c_bands:  2 eigenvalues not converged
     c_bands:  2 eigenvalues not converged
     ethr =  9.03E-06,  avg # of iterations = 20.0

     total cpu time spent up to now is   524293.4 secs

     total energy              =  -52735.12361103 Ry
     estimated scf accuracy    <       1.53564954 Ry

     iteration # 16     ecut=    60.00 Ry     beta= 0.70
     Davidson diagonalization with overlap
     c_bands:  1 eigenvalues not converged
     c_bands:  1 eigenvalues not converged
     c_bands:  1 eigenvalues not converged
     c_bands:  1 eigenvalues not converged
     ethr =  9.03E-06,  avg # of iterations = 20.0

     total cpu time spent up to now is   552206.1 secs

     total energy              =  -52735.15634541 Ry
     estimated scf accuracy    <       0.19960295 Ry

     iteration # 17     ecut=    60.00 Ry     beta= 0.70
     Davidson diagonalization with overlap
     c_bands:  1 eigenvalues not converged
     c_bands:  1 eigenvalues not converged
     c_bands:  1 eigenvalues not converged
     c_bands:  1 eigenvalues not converged
     ethr =  3.75E-06,  avg # of iterations = 20.0

     total cpu time spent up to now is   580612.0 secs

     total energy              =  -52735.14333459 Ry
     estimated scf accuracy    <       0.25373551 Ry

     iteration # 18     ecut=    60.00 Ry     beta= 0.70
     Davidson diagonalization with overlap
     c_bands:  1 eigenvalues not converged
     c_bands:  1 eigenvalues not converged
     c_bands:  1 eigenvalues not converged
     c_bands:  1 eigenvalues not converged
     ethr =  3.75E-06,  avg # of iterations = 20.0

     total cpu time spent up to now is   615555.7 secs

     total energy              =  -52735.07138640 Ry
     estimated scf accuracy    <       3.00951758 Ry

     iteration # 19     ecut=    60.00 Ry     beta= 0.70
     Davidson diagonalization with overlap
     c_bands:  2 eigenvalues not converged
     c_bands:  1 eigenvalues not converged
     c_bands:  1 eigenvalues not converged
     c_bands:  1 eigenvalues not converged
     ethr =  3.75E-06,  avg # of iterations = 20.0

     total cpu time spent up to now is   652704.4 secs

     total energy              =  -52735.13135599 Ry
     estimated scf accuracy    <       1.14484510 Ry

     iteration # 20     ecut=    60.00 Ry     beta= 0.70
     Davidson diagonalization with overlap
     c_bands:  1 eigenvalues not converged
     c_bands:  1 eigenvalues not converged
     c_bands:  1 eigenvalues not converged
     c_bands:  1 eigenvalues not converged
     ethr =  3.75E-06,  avg # of iterations = 20.0

     total cpu time spent up to now is   714987.7 secs

     total energy              =  -52735.16165039 Ry
     estimated scf accuracy    <       0.29659726 Ry

     iteration # 21     ecut=    60.00 Ry     beta= 0.70
     Davidson diagonalization with overlap
     ethr =  3.75E-06,  avg # of iterations = 19.2

     total cpu time spent up to now is   763953.2 secs

     total energy              =  -52735.16443355 Ry
     estimated scf accuracy    <       0.07486966 Ry

     iteration # 22     ecut=    60.00 Ry     beta= 0.70
     Davidson diagonalization with overlap
     c_bands:  2 eigenvalues not converged
     c_bands:  2 eigenvalues not converged
     c_bands:  2 eigenvalues not converged
     c_bands:  2 eigenvalues not converged
     ethr =  1.41E-06,  avg # of iterations = 20.0

     total cpu time spent up to now is   816288.0 secs

     total energy              =  -52735.13777363 Ry
     estimated scf accuracy    <       1.13053710 Ry

     iteration # 23     ecut=    60.00 Ry     beta= 0.70
     Davidson diagonalization with overlap
     c_bands:  1 eigenvalues not converged
     c_bands:  1 eigenvalues not converged
     c_bands:  1 eigenvalues not converged
     ethr =  1.41E-06,  avg # of iterations = 20.0

     total cpu time spent up to now is   871444.4 secs

     total energy              =  -52735.13238737 Ry
     estimated scf accuracy    <       1.64608800 Ry

     iteration # 24     ecut=    60.00 Ry     beta= 0.70
     Davidson diagonalization with overlap
     c_bands:  1 eigenvalues not converged
     c_bands:  1 eigenvalues not converged
     c_bands:  1 eigenvalues not converged
     c_bands:  1 eigenvalues not converged
     ethr =  1.41E-06,  avg # of iterations = 20.0

     total cpu time spent up to now is   927155.3 secs

     total energy              =  -52735.15736713 Ry
     estimated scf accuracy    <       0.37179869 Ry

     iteration # 25     ecut=    60.00 Ry     beta= 0.70
     Davidson diagonalization with overlap
     c_bands:  2 eigenvalues not converged
     c_bands:  2 eigenvalues not converged
     c_bands:  1 eigenvalues not converged
     c_bands:  1 eigenvalues not converged
     ethr =  1.41E-06,  avg # of iterations = 20.0

     total cpu time spent up to now is   981031.9 secs

     total energy              =  -52735.13652662 Ry
     estimated scf accuracy    <       1.55403745 Ry

     iteration # 26     ecut=    60.00 Ry     beta= 0.70
     Davidson diagonalization with overlap
     c_bands:  1 eigenvalues not converged
     c_bands:  1 eigenvalues not converged
     ethr =  1.41E-06,  avg # of iterations = 20.0

     total cpu time spent up to now is  1036622.0 secs

     total energy              =  -52735.15128126 Ry
     estimated scf accuracy    <       0.71269133 Ry

     iteration # 27     ecut=    60.00 Ry     beta= 0.70
