phonopy:
  version: 2.18.0
  calculator: qe
  frequency_unit_conversion_factor: 15.633302
  symmetry_tolerance: 1.00000e-05
  configuration:
    cell_filename: "CuC16.in"
    create_displacements: ".true."
    dim: "3 3 4"
    calculator: "qe"

physical_unit:
  atomic_mass: "AMU"
  length: "au"
  force_constants: "Ry/au^2"

space_group:
  type: "I4/mcm"
  number: 140
  Hall_symbol: "-I 4 2c"

supercell_matrix:
- [   3,   0,   0 ]
- [   0,   3,   0 ]
- [   0,   0,   4 ]

primitive_cell:
  lattice:
  - [     6.446506000000000,     0.000000000000000,     0.000000000000000 ] # a
  - [     0.000000000000000,     6.446506000000000,     0.000000000000000 ] # b
  - [     0.000000000000000,     0.000000000000000,     5.065112000000000 ] # c
  points:
  - symbol: Cu # 1
    coordinates: [  0.000000000000000,  0.000000000000000,  0.250000000000000 ]
    mass: 63.546000
  - symbol: Cu # 2
    coordinates: [  0.500000000000000,  0.500000000000000,  0.750000000000000 ]
    mass: 63.546000
  - symbol: Cu # 3
    coordinates: [  0.000000000000000,  0.000000000000000,  0.750000000000000 ]
    mass: 63.546000
  - symbol: Cu # 4
    coordinates: [  0.500000000000000,  0.500000000000000,  0.250000000000000 ]
    mass: 63.546000
  - symbol: In # 5
    coordinates: [  0.158192000000000,  0.658192000000000,  0.000000000000000 ]
    mass: 114.818000
  - symbol: In # 6
    coordinates: [  0.658192000000000,  0.158192000000000,  0.500000000000000 ]
    mass: 114.818000
  - symbol: In # 7
    coordinates: [  0.841808000000000,  0.341808000000000,  0.000000000000000 ]
    mass: 114.818000
  - symbol: In # 8
    coordinates: [  0.341808000000000,  0.841808000000000,  0.500000000000000 ]
    mass: 114.818000
  - symbol: In # 9
    coordinates: [  0.341808000000000,  0.158192000000000,  0.000000000000000 ]
    mass: 114.818000
  - symbol: In # 10
    coordinates: [  0.841808000000000,  0.658192000000000,  0.500000000000000 ]
    mass: 114.818000
  - symbol: In # 11
    coordinates: [  0.658192000000000,  0.841808000000000,  0.000000000000000 ]
    mass: 114.818000
  - symbol: In # 12
    coordinates: [  0.158192000000000,  0.341808000000000,  0.500000000000000 ]
    mass: 114.818000
  reciprocal_lattice: # without 2pi
  - [     0.155122790547314,     0.000000000000000,     0.000000000000000 ] # a*
  - [     0.000000000000000,     0.155122790547314,     0.000000000000000 ] # b*
  - [     0.000000000000000,     0.000000000000000,     0.197429000582810 ] # c*

unit_cell:
  lattice:
  - [     6.446506000000000,     0.000000000000000,     0.000000000000000 ] # a
  - [     0.000000000000000,     6.446506000000000,     0.000000000000000 ] # b
  - [     0.000000000000000,     0.000000000000000,     5.065112000000000 ] # c
  points:
  - symbol: Cu # 1
    coordinates: [  0.000000000000000,  0.000000000000000,  0.250000000000000 ]
    mass: 63.546000
    reduced_to: 1
  - symbol: Cu # 2
    coordinates: [  0.500000000000000, -0.500000000000000,  0.750000000000000 ]
    mass: 63.546000
    reduced_to: 2
  - symbol: Cu # 3
    coordinates: [  0.000000000000000,  0.000000000000000, -0.250000000000000 ]
    mass: 63.546000
    reduced_to: 3
  - symbol: Cu # 4
    coordinates: [  0.500000000000000, -0.500000000000000,  0.250000000000000 ]
    mass: 63.546000
    reduced_to: 4
  - symbol: In # 5
    coordinates: [  0.158192000000000,  0.658192000000000,  0.000000000000000 ]
    mass: 114.818000
    reduced_to: 5
  - symbol: In # 6
    coordinates: [  0.658192000000000,  0.158192000000000,  0.500000000000000 ]
    mass: 114.818000
    reduced_to: 6
  - symbol: In # 7
    coordinates: [ -0.158192000000000,  0.341808000000000,  0.000000000000000 ]
    mass: 114.818000
    reduced_to: 7
  - symbol: In # 8
    coordinates: [  0.341808000000000, -0.158192000000000,  0.500000000000000 ]
    mass: 114.818000
    reduced_to: 8
  - symbol: In # 9
    coordinates: [  0.341808000000000,  0.158192000000000,  0.000000000000000 ]
    mass: 114.818000
    reduced_to: 9
  - symbol: In # 10
    coordinates: [  0.841808000000000, -0.341808000000000,  0.500000000000000 ]
    mass: 114.818000
    reduced_to: 10
  - symbol: In # 11
    coordinates: [  0.658192000000000, -0.158192000000000,  0.000000000000000 ]
    mass: 114.818000
    reduced_to: 11
  - symbol: In # 12
    coordinates: [  0.158192000000000, -0.658192000000000,  0.500000000000000 ]
    mass: 114.818000
    reduced_to: 12

supercell:
  lattice:
  - [    19.339518000000002,     0.000000000000000,     0.000000000000000 ] # a
  - [     0.000000000000000,    19.339518000000002,     0.000000000000000 ] # b
  - [     0.000000000000000,     0.000000000000000,    20.260448000000000 ] # c
  points:
  - symbol: Cu # 1
    coordinates: [  0.000000000000000,  0.000000000000000,  0.062500000000000 ]
    mass: 63.546000
    reduced_to: 1
  - symbol: Cu # 2
    coordinates: [  0.333333333333333,  0.000000000000000,  0.062500000000000 ]
    mass: 63.546000
    reduced_to: 1
  - symbol: Cu # 3
    coordinates: [  0.666666666666667,  0.000000000000000,  0.062500000000000 ]
    mass: 63.546000
    reduced_to: 1
  - symbol: Cu # 4
    coordinates: [  0.000000000000000,  0.333333333333333,  0.062500000000000 ]
    mass: 63.546000
    reduced_to: 1
  - symbol: Cu # 5
    coordinates: [  0.333333333333333,  0.333333333333333,  0.062500000000000 ]
    mass: 63.546000
    reduced_to: 1
  - symbol: Cu # 6
    coordinates: [  0.666666666666667,  0.333333333333333,  0.062500000000000 ]
    mass: 63.546000
    reduced_to: 1
  - symbol: Cu # 7
    coordinates: [  0.000000000000000,  0.666666666666667,  0.062500000000000 ]
    mass: 63.546000
    reduced_to: 1
  - symbol: Cu # 8
    coordinates: [  0.333333333333333,  0.666666666666667,  0.062500000000000 ]
    mass: 63.546000
    reduced_to: 1
  - symbol: Cu # 9
    coordinates: [  0.666666666666667,  0.666666666666667,  0.062500000000000 ]
    mass: 63.546000
    reduced_to: 1
  - symbol: Cu # 10
    coordinates: [  0.000000000000000,  0.000000000000000,  0.312500000000000 ]
    mass: 63.546000
    reduced_to: 1
  - symbol: Cu # 11
    coordinates: [  0.333333333333333,  0.000000000000000,  0.312500000000000 ]
    mass: 63.546000
    reduced_to: 1
  - symbol: Cu # 12
    coordinates: [  0.666666666666667,  0.000000000000000,  0.312500000000000 ]
    mass: 63.546000
    reduced_to: 1
  - symbol: Cu # 13
    coordinates: [  0.000000000000000,  0.333333333333333,  0.312500000000000 ]
    mass: 63.546000
    reduced_to: 1
  - symbol: Cu # 14
    coordinates: [  0.333333333333333,  0.333333333333333,  0.312500000000000 ]
    mass: 63.546000
    reduced_to: 1
  - symbol: Cu # 15
    coordinates: [  0.666666666666667,  0.333333333333333,  0.312500000000000 ]
    mass: 63.546000
    reduced_to: 1
  - symbol: Cu # 16
    coordinates: [  0.000000000000000,  0.666666666666667,  0.312500000000000 ]
    mass: 63.546000
    reduced_to: 1
  - symbol: Cu # 17
    coordinates: [  0.333333333333333,  0.666666666666667,  0.312500000000000 ]
    mass: 63.546000
    reduced_to: 1
  - symbol: Cu # 18
    coordinates: [  0.666666666666667,  0.666666666666667,  0.312500000000000 ]
    mass: 63.546000
    reduced_to: 1
  - symbol: Cu # 19
    coordinates: [  0.000000000000000,  0.000000000000000,  0.562500000000000 ]
    mass: 63.546000
    reduced_to: 1
  - symbol: Cu # 20
    coordinates: [  0.333333333333333,  0.000000000000000,  0.562500000000000 ]
    mass: 63.546000
    reduced_to: 1
  - symbol: Cu # 21
    coordinates: [  0.666666666666667,  0.000000000000000,  0.562500000000000 ]
    mass: 63.546000
    reduced_to: 1
  - symbol: Cu # 22
    coordinates: [  0.000000000000000,  0.333333333333333,  0.562500000000000 ]
    mass: 63.546000
    reduced_to: 1
  - symbol: Cu # 23
    coordinates: [  0.333333333333333,  0.333333333333333,  0.562500000000000 ]
    mass: 63.546000
    reduced_to: 1
  - symbol: Cu # 24
    coordinates: [  0.666666666666667,  0.333333333333333,  0.562500000000000 ]
    mass: 63.546000
    reduced_to: 1
  - symbol: Cu # 25
    coordinates: [  0.000000000000000,  0.666666666666667,  0.562500000000000 ]
    mass: 63.546000
    reduced_to: 1
  - symbol: Cu # 26
    coordinates: [  0.333333333333333,  0.666666666666667,  0.562500000000000 ]
    mass: 63.546000
    reduced_to: 1
  - symbol: Cu # 27
    coordinates: [  0.666666666666667,  0.666666666666667,  0.562500000000000 ]
    mass: 63.546000
    reduced_to: 1
  - symbol: Cu # 28
    coordinates: [  0.000000000000000,  0.000000000000000,  0.812500000000000 ]
    mass: 63.546000
    reduced_to: 1
  - symbol: Cu # 29
    coordinates: [  0.333333333333333,  0.000000000000000,  0.812500000000000 ]
    mass: 63.546000
    reduced_to: 1
  - symbol: Cu # 30
    coordinates: [  0.666666666666667,  0.000000000000000,  0.812500000000000 ]
    mass: 63.546000
    reduced_to: 1
  - symbol: Cu # 31
    coordinates: [  0.000000000000000,  0.333333333333333,  0.812500000000000 ]
    mass: 63.546000
    reduced_to: 1
  - symbol: Cu # 32
    coordinates: [  0.333333333333333,  0.333333333333333,  0.812500000000000 ]
    mass: 63.546000
    reduced_to: 1
  - symbol: Cu # 33
    coordinates: [  0.666666666666667,  0.333333333333333,  0.812500000000000 ]
    mass: 63.546000
    reduced_to: 1
  - symbol: Cu # 34
    coordinates: [  0.000000000000000,  0.666666666666667,  0.812500000000000 ]
    mass: 63.546000
    reduced_to: 1
  - symbol: Cu # 35
    coordinates: [  0.333333333333333,  0.666666666666667,  0.812500000000000 ]
    mass: 63.546000
    reduced_to: 1
  - symbol: Cu # 36
    coordinates: [  0.666666666666667,  0.666666666666667,  0.812500000000000 ]
    mass: 63.546000
    reduced_to: 1
  - symbol: Cu # 37
    coordinates: [  0.166666666666667,  0.833333333333333,  0.187500000000000 ]
    mass: 63.546000
    reduced_to: 37
  - symbol: Cu # 38
    coordinates: [  0.500000000000000,  0.833333333333333,  0.187500000000000 ]
    mass: 63.546000
    reduced_to: 37
  - symbol: Cu # 39
    coordinates: [  0.833333333333333,  0.833333333333333,  0.187500000000000 ]
    mass: 63.546000
    reduced_to: 37
  - symbol: Cu # 40
    coordinates: [  0.166666666666667,  0.166666666666667,  0.187500000000000 ]
    mass: 63.546000
    reduced_to: 37
  - symbol: Cu # 41
    coordinates: [  0.500000000000000,  0.166666666666667,  0.187500000000000 ]
    mass: 63.546000
    reduced_to: 37
  - symbol: Cu # 42
    coordinates: [  0.833333333333333,  0.166666666666667,  0.187500000000000 ]
    mass: 63.546000
    reduced_to: 37
  - symbol: Cu # 43
    coordinates: [  0.166666666666667,  0.500000000000000,  0.187500000000000 ]
    mass: 63.546000
    reduced_to: 37
  - symbol: Cu # 44
    coordinates: [  0.500000000000000,  0.500000000000000,  0.187500000000000 ]
    mass: 63.546000
    reduced_to: 37
  - symbol: Cu # 45
    coordinates: [  0.833333333333333,  0.500000000000000,  0.187500000000000 ]
    mass: 63.546000
    reduced_to: 37
  - symbol: Cu # 46
    coordinates: [  0.166666666666667,  0.833333333333333,  0.437500000000000 ]
    mass: 63.546000
    reduced_to: 37
  - symbol: Cu # 47
    coordinates: [  0.500000000000000,  0.833333333333333,  0.437500000000000 ]
    mass: 63.546000
    reduced_to: 37
  - symbol: Cu # 48
    coordinates: [  0.833333333333333,  0.833333333333333,  0.437500000000000 ]
    mass: 63.546000
    reduced_to: 37
  - symbol: Cu # 49
    coordinates: [  0.166666666666667,  0.166666666666667,  0.437500000000000 ]
    mass: 63.546000
    reduced_to: 37
  - symbol: Cu # 50
    coordinates: [  0.500000000000000,  0.166666666666667,  0.437500000000000 ]
    mass: 63.546000
    reduced_to: 37
  - symbol: Cu # 51
    coordinates: [  0.833333333333333,  0.166666666666667,  0.437500000000000 ]
    mass: 63.546000
    reduced_to: 37
  - symbol: Cu # 52
    coordinates: [  0.166666666666667,  0.500000000000000,  0.437500000000000 ]
    mass: 63.546000
    reduced_to: 37
  - symbol: Cu # 53
    coordinates: [  0.500000000000000,  0.500000000000000,  0.437500000000000 ]
    mass: 63.546000
    reduced_to: 37
  - symbol: Cu # 54
    coordinates: [  0.833333333333333,  0.500000000000000,  0.437500000000000 ]
    mass: 63.546000
    reduced_to: 37
  - symbol: Cu # 55
    coordinates: [  0.166666666666667,  0.833333333333333,  0.687500000000000 ]
    mass: 63.546000
    reduced_to: 37
  - symbol: Cu # 56
    coordinates: [  0.500000000000000,  0.833333333333333,  0.687500000000000 ]
    mass: 63.546000
    reduced_to: 37
  - symbol: Cu # 57
    coordinates: [  0.833333333333333,  0.833333333333333,  0.687500000000000 ]
    mass: 63.546000
    reduced_to: 37
  - symbol: Cu # 58
    coordinates: [  0.166666666666667,  0.166666666666667,  0.687500000000000 ]
    mass: 63.546000
    reduced_to: 37
  - symbol: Cu # 59
    coordinates: [  0.500000000000000,  0.166666666666667,  0.687500000000000 ]
    mass: 63.546000
    reduced_to: 37
  - symbol: Cu # 60
    coordinates: [  0.833333333333333,  0.166666666666667,  0.687500000000000 ]
    mass: 63.546000
    reduced_to: 37
  - symbol: Cu # 61
    coordinates: [  0.166666666666667,  0.500000000000000,  0.687500000000000 ]
    mass: 63.546000
    reduced_to: 37
  - symbol: Cu # 62
    coordinates: [  0.500000000000000,  0.500000000000000,  0.687500000000000 ]
    mass: 63.546000
    reduced_to: 37
  - symbol: Cu # 63
    coordinates: [  0.833333333333333,  0.500000000000000,  0.687500000000000 ]
    mass: 63.546000
    reduced_to: 37
  - symbol: Cu # 64
    coordinates: [  0.166666666666667,  0.833333333333333,  0.937500000000000 ]
    mass: 63.546000
    reduced_to: 37
  - symbol: Cu # 65
    coordinates: [  0.500000000000000,  0.833333333333333,  0.937500000000000 ]
    mass: 63.546000
    reduced_to: 37
  - symbol: Cu # 66
    coordinates: [  0.833333333333333,  0.833333333333333,  0.937500000000000 ]
    mass: 63.546000
    reduced_to: 37
  - symbol: Cu # 67
    coordinates: [  0.166666666666667,  0.166666666666667,  0.937500000000000 ]
    mass: 63.546000
    reduced_to: 37
  - symbol: Cu # 68
    coordinates: [  0.500000000000000,  0.166666666666667,  0.937500000000000 ]
    mass: 63.546000
    reduced_to: 37
  - symbol: Cu # 69
    coordinates: [  0.833333333333333,  0.166666666666667,  0.937500000000000 ]
    mass: 63.546000
    reduced_to: 37
  - symbol: Cu # 70
    coordinates: [  0.166666666666667,  0.500000000000000,  0.937500000000000 ]
    mass: 63.546000
    reduced_to: 37
  - symbol: Cu # 71
    coordinates: [  0.500000000000000,  0.500000000000000,  0.937500000000000 ]
    mass: 63.546000
    reduced_to: 37
  - symbol: Cu # 72
    coordinates: [  0.833333333333333,  0.500000000000000,  0.937500000000000 ]
    mass: 63.546000
    reduced_to: 37
  - symbol: Cu # 73
    coordinates: [  0.000000000000000,  0.000000000000000,  0.937500000000000 ]
    mass: 63.546000
    reduced_to: 73
  - symbol: Cu # 74
    coordinates: [  0.333333333333333,  0.000000000000000,  0.937500000000000 ]
    mass: 63.546000
    reduced_to: 73
  - symbol: Cu # 75
    coordinates: [  0.666666666666667,  0.000000000000000,  0.937500000000000 ]
    mass: 63.546000
    reduced_to: 73
  - symbol: Cu # 76
    coordinates: [  0.000000000000000,  0.333333333333333,  0.937500000000000 ]
    mass: 63.546000
    reduced_to: 73
  - symbol: Cu # 77
    coordinates: [  0.333333333333333,  0.333333333333333,  0.937500000000000 ]
    mass: 63.546000
    reduced_to: 73
  - symbol: Cu # 78
    coordinates: [  0.666666666666667,  0.333333333333333,  0.937500000000000 ]
    mass: 63.546000
    reduced_to: 73
  - symbol: Cu # 79
    coordinates: [  0.000000000000000,  0.666666666666667,  0.937500000000000 ]
    mass: 63.546000
    reduced_to: 73
  - symbol: Cu # 80
    coordinates: [  0.333333333333333,  0.666666666666667,  0.937500000000000 ]
    mass: 63.546000
    reduced_to: 73
  - symbol: Cu # 81
    coordinates: [  0.666666666666667,  0.666666666666667,  0.937500000000000 ]
    mass: 63.546000
    reduced_to: 73
  - symbol: Cu # 82
    coordinates: [  0.000000000000000,  0.000000000000000,  0.187500000000000 ]
    mass: 63.546000
    reduced_to: 73
  - symbol: Cu # 83
    coordinates: [  0.333333333333333,  0.000000000000000,  0.187500000000000 ]
    mass: 63.546000
    reduced_to: 73
  - symbol: Cu # 84
    coordinates: [  0.666666666666667,  0.000000000000000,  0.187500000000000 ]
    mass: 63.546000
    reduced_to: 73
  - symbol: Cu # 85
    coordinates: [  0.000000000000000,  0.333333333333333,  0.187500000000000 ]
    mass: 63.546000
    reduced_to: 73
  - symbol: Cu # 86
    coordinates: [  0.333333333333333,  0.333333333333333,  0.187500000000000 ]
    mass: 63.546000
    reduced_to: 73
  - symbol: Cu # 87
    coordinates: [  0.666666666666667,  0.333333333333333,  0.187500000000000 ]
    mass: 63.546000
    reduced_to: 73
  - symbol: Cu # 88
    coordinates: [  0.000000000000000,  0.666666666666667,  0.187500000000000 ]
    mass: 63.546000
    reduced_to: 73
  - symbol: Cu # 89
    coordinates: [  0.333333333333333,  0.666666666666667,  0.187500000000000 ]
    mass: 63.546000
    reduced_to: 73
  - symbol: Cu # 90
    coordinates: [  0.666666666666667,  0.666666666666667,  0.187500000000000 ]
    mass: 63.546000
    reduced_to: 73
  - symbol: Cu # 91
    coordinates: [  0.000000000000000,  0.000000000000000,  0.437500000000000 ]
    mass: 63.546000
    reduced_to: 73
  - symbol: Cu # 92
    coordinates: [  0.333333333333333,  0.000000000000000,  0.437500000000000 ]
    mass: 63.546000
    reduced_to: 73
  - symbol: Cu # 93
    coordinates: [  0.666666666666667,  0.000000000000000,  0.437500000000000 ]
    mass: 63.546000
    reduced_to: 73
  - symbol: Cu # 94
    coordinates: [  0.000000000000000,  0.333333333333333,  0.437500000000000 ]
    mass: 63.546000
    reduced_to: 73
  - symbol: Cu # 95
    coordinates: [  0.333333333333333,  0.333333333333333,  0.437500000000000 ]
    mass: 63.546000
    reduced_to: 73
  - symbol: Cu # 96
    coordinates: [  0.666666666666667,  0.333333333333333,  0.437500000000000 ]
    mass: 63.546000
    reduced_to: 73
  - symbol: Cu # 97
    coordinates: [  0.000000000000000,  0.666666666666667,  0.437500000000000 ]
    mass: 63.546000
    reduced_to: 73
  - symbol: Cu # 98
    coordinates: [  0.333333333333333,  0.666666666666667,  0.437500000000000 ]
    mass: 63.546000
    reduced_to: 73
  - symbol: Cu # 99
    coordinates: [  0.666666666666667,  0.666666666666667,  0.437500000000000 ]
    mass: 63.546000
    reduced_to: 73
  - symbol: Cu # 100
    coordinates: [  0.000000000000000,  0.000000000000000,  0.687500000000000 ]
    mass: 63.546000
    reduced_to: 73
  - symbol: Cu # 101
    coordinates: [  0.333333333333333,  0.000000000000000,  0.687500000000000 ]
    mass: 63.546000
    reduced_to: 73
  - symbol: Cu # 102
    coordinates: [  0.666666666666667,  0.000000000000000,  0.687500000000000 ]
    mass: 63.546000
    reduced_to: 73
  - symbol: Cu # 103
    coordinates: [  0.000000000000000,  0.333333333333333,  0.687500000000000 ]
    mass: 63.546000
    reduced_to: 73
  - symbol: Cu # 104
    coordinates: [  0.333333333333333,  0.333333333333333,  0.687500000000000 ]
    mass: 63.546000
    reduced_to: 73
  - symbol: Cu # 105
    coordinates: [  0.666666666666667,  0.333333333333333,  0.687500000000000 ]
    mass: 63.546000
    reduced_to: 73
  - symbol: Cu # 106
    coordinates: [  0.000000000000000,  0.666666666666667,  0.687500000000000 ]
    mass: 63.546000
    reduced_to: 73
  - symbol: Cu # 107
    coordinates: [  0.333333333333333,  0.666666666666667,  0.687500000000000 ]
    mass: 63.546000
    reduced_to: 73
  - symbol: Cu # 108
    coordinates: [  0.666666666666667,  0.666666666666667,  0.687500000000000 ]
    mass: 63.546000
    reduced_to: 73
  - symbol: Cu # 109
    coordinates: [  0.166666666666667,  0.833333333333333,  0.062500000000000 ]
    mass: 63.546000
    reduced_to: 109
  - symbol: Cu # 110
    coordinates: [  0.500000000000000,  0.833333333333333,  0.062500000000000 ]
    mass: 63.546000
    reduced_to: 109
  - symbol: Cu # 111
    coordinates: [  0.833333333333333,  0.833333333333333,  0.062500000000000 ]
    mass: 63.546000
    reduced_to: 109
  - symbol: Cu # 112
    coordinates: [  0.166666666666667,  0.166666666666667,  0.062500000000000 ]
    mass: 63.546000
    reduced_to: 109
  - symbol: Cu # 113
    coordinates: [  0.500000000000000,  0.166666666666667,  0.062500000000000 ]
    mass: 63.546000
    reduced_to: 109
  - symbol: Cu # 114
    coordinates: [  0.833333333333333,  0.166666666666667,  0.062500000000000 ]
    mass: 63.546000
    reduced_to: 109
  - symbol: Cu # 115
    coordinates: [  0.166666666666667,  0.500000000000000,  0.062500000000000 ]
    mass: 63.546000
    reduced_to: 109
  - symbol: Cu # 116
    coordinates: [  0.500000000000000,  0.500000000000000,  0.062500000000000 ]
    mass: 63.546000
    reduced_to: 109
  - symbol: Cu # 117
    coordinates: [  0.833333333333333,  0.500000000000000,  0.062500000000000 ]
    mass: 63.546000
    reduced_to: 109
  - symbol: Cu # 118
    coordinates: [  0.166666666666667,  0.833333333333333,  0.312500000000000 ]
    mass: 63.546000
    reduced_to: 109
  - symbol: Cu # 119
    coordinates: [  0.500000000000000,  0.833333333333333,  0.312500000000000 ]
    mass: 63.546000
    reduced_to: 109
  - symbol: Cu # 120
    coordinates: [  0.833333333333333,  0.833333333333333,  0.312500000000000 ]
    mass: 63.546000
    reduced_to: 109
  - symbol: Cu # 121
    coordinates: [  0.166666666666667,  0.166666666666667,  0.312500000000000 ]
    mass: 63.546000
    reduced_to: 109
  - symbol: Cu # 122
    coordinates: [  0.500000000000000,  0.166666666666667,  0.312500000000000 ]
    mass: 63.546000
    reduced_to: 109
  - symbol: Cu # 123
    coordinates: [  0.833333333333333,  0.166666666666667,  0.312500000000000 ]
    mass: 63.546000
    reduced_to: 109
  - symbol: Cu # 124
    coordinates: [  0.166666666666667,  0.500000000000000,  0.312500000000000 ]
    mass: 63.546000
    reduced_to: 109
  - symbol: Cu # 125
    coordinates: [  0.500000000000000,  0.500000000000000,  0.312500000000000 ]
    mass: 63.546000
    reduced_to: 109
  - symbol: Cu # 126
    coordinates: [  0.833333333333333,  0.500000000000000,  0.312500000000000 ]
    mass: 63.546000
    reduced_to: 109
  - symbol: Cu # 127
    coordinates: [  0.166666666666667,  0.833333333333333,  0.562500000000000 ]
    mass: 63.546000
    reduced_to: 109
  - symbol: Cu # 128
    coordinates: [  0.500000000000000,  0.833333333333333,  0.562500000000000 ]
    mass: 63.546000
    reduced_to: 109
  - symbol: Cu # 129
    coordinates: [  0.833333333333333,  0.833333333333333,  0.562500000000000 ]
    mass: 63.546000
    reduced_to: 109
  - symbol: Cu # 130
    coordinates: [  0.166666666666667,  0.166666666666667,  0.562500000000000 ]
    mass: 63.546000
    reduced_to: 109
  - symbol: Cu # 131
    coordinates: [  0.500000000000000,  0.166666666666667,  0.562500000000000 ]
    mass: 63.546000
    reduced_to: 109
  - symbol: Cu # 132
    coordinates: [  0.833333333333333,  0.166666666666667,  0.562500000000000 ]
    mass: 63.546000
    reduced_to: 109
  - symbol: Cu # 133
    coordinates: [  0.166666666666667,  0.500000000000000,  0.562500000000000 ]
    mass: 63.546000
    reduced_to: 109
  - symbol: Cu # 134
    coordinates: [  0.500000000000000,  0.500000000000000,  0.562500000000000 ]
    mass: 63.546000
    reduced_to: 109
  - symbol: Cu # 135
    coordinates: [  0.833333333333333,  0.500000000000000,  0.562500000000000 ]
    mass: 63.546000
    reduced_to: 109
  - symbol: Cu # 136
    coordinates: [  0.166666666666667,  0.833333333333333,  0.812500000000000 ]
    mass: 63.546000
    reduced_to: 109
  - symbol: Cu # 137
    coordinates: [  0.500000000000000,  0.833333333333333,  0.812500000000000 ]
    mass: 63.546000
    reduced_to: 109
  - symbol: Cu # 138
    coordinates: [  0.833333333333333,  0.833333333333333,  0.812500000000000 ]
    mass: 63.546000
    reduced_to: 109
  - symbol: Cu # 139
    coordinates: [  0.166666666666667,  0.166666666666667,  0.812500000000000 ]
    mass: 63.546000
    reduced_to: 109
  - symbol: Cu # 140
    coordinates: [  0.500000000000000,  0.166666666666667,  0.812500000000000 ]
    mass: 63.546000
    reduced_to: 109
  - symbol: Cu # 141
    coordinates: [  0.833333333333333,  0.166666666666667,  0.812500000000000 ]
    mass: 63.546000
    reduced_to: 109
  - symbol: Cu # 142
    coordinates: [  0.166666666666667,  0.500000000000000,  0.812500000000000 ]
    mass: 63.546000
    reduced_to: 109
  - symbol: Cu # 143
    coordinates: [  0.500000000000000,  0.500000000000000,  0.812500000000000 ]
    mass: 63.546000
    reduced_to: 109
  - symbol: Cu # 144
    coordinates: [  0.833333333333333,  0.500000000000000,  0.812500000000000 ]
    mass: 63.546000
    reduced_to: 109
  - symbol: In # 145
    coordinates: [  0.052730666666667,  0.219397333333333,  0.000000000000000 ]
    mass: 114.818000
    reduced_to: 145
  - symbol: In # 146
    coordinates: [  0.386064000000000,  0.219397333333333,  0.000000000000000 ]
    mass: 114.818000
    reduced_to: 145
  - symbol: In # 147
    coordinates: [  0.719397333333333,  0.219397333333333,  0.000000000000000 ]
    mass: 114.818000
    reduced_to: 145
  - symbol: In # 148
    coordinates: [  0.052730666666667,  0.552730666666667,  0.000000000000000 ]
    mass: 114.818000
    reduced_to: 145
  - symbol: In # 149
    coordinates: [  0.386064000000000,  0.552730666666667,  0.000000000000000 ]
    mass: 114.818000
    reduced_to: 145
  - symbol: In # 150
    coordinates: [  0.719397333333333,  0.552730666666667,  0.000000000000000 ]
    mass: 114.818000
    reduced_to: 145
  - symbol: In # 151
    coordinates: [  0.052730666666667,  0.886064000000000,  0.000000000000000 ]
    mass: 114.818000
    reduced_to: 145
  - symbol: In # 152
    coordinates: [  0.386064000000000,  0.886064000000000,  0.000000000000000 ]
    mass: 114.818000
    reduced_to: 145
  - symbol: In # 153
    coordinates: [  0.719397333333333,  0.886064000000000,  0.000000000000000 ]
    mass: 114.818000
    reduced_to: 145
  - symbol: In # 154
    coordinates: [  0.052730666666667,  0.219397333333333,  0.250000000000000 ]
    mass: 114.818000
    reduced_to: 145
  - symbol: In # 155
    coordinates: [  0.386064000000000,  0.219397333333333,  0.250000000000000 ]
    mass: 114.818000
    reduced_to: 145
  - symbol: In # 156
    coordinates: [  0.719397333333333,  0.219397333333333,  0.250000000000000 ]
    mass: 114.818000
    reduced_to: 145
  - symbol: In # 157
    coordinates: [  0.052730666666667,  0.552730666666667,  0.250000000000000 ]
    mass: 114.818000
    reduced_to: 145
  - symbol: In # 158
    coordinates: [  0.386064000000000,  0.552730666666667,  0.250000000000000 ]
    mass: 114.818000
    reduced_to: 145
  - symbol: In # 159
    coordinates: [  0.719397333333333,  0.552730666666667,  0.250000000000000 ]
    mass: 114.818000
    reduced_to: 145
  - symbol: In # 160
    coordinates: [  0.052730666666667,  0.886064000000000,  0.250000000000000 ]
    mass: 114.818000
    reduced_to: 145
  - symbol: In # 161
    coordinates: [  0.386064000000000,  0.886064000000000,  0.250000000000000 ]
    mass: 114.818000
    reduced_to: 145
  - symbol: In # 162
    coordinates: [  0.719397333333333,  0.886064000000000,  0.250000000000000 ]
    mass: 114.818000
    reduced_to: 145
  - symbol: In # 163
    coordinates: [  0.052730666666667,  0.219397333333333,  0.500000000000000 ]
    mass: 114.818000
    reduced_to: 145
  - symbol: In # 164
    coordinates: [  0.386064000000000,  0.219397333333333,  0.500000000000000 ]
    mass: 114.818000
    reduced_to: 145
  - symbol: In # 165
    coordinates: [  0.719397333333333,  0.219397333333333,  0.500000000000000 ]
    mass: 114.818000
    reduced_to: 145
  - symbol: In # 166
    coordinates: [  0.052730666666667,  0.552730666666667,  0.500000000000000 ]
    mass: 114.818000
    reduced_to: 145
  - symbol: In # 167
    coordinates: [  0.386064000000000,  0.552730666666667,  0.500000000000000 ]
    mass: 114.818000
    reduced_to: 145
  - symbol: In # 168
    coordinates: [  0.719397333333333,  0.552730666666667,  0.500000000000000 ]
    mass: 114.818000
    reduced_to: 145
  - symbol: In # 169
    coordinates: [  0.052730666666667,  0.886064000000000,  0.500000000000000 ]
    mass: 114.818000
    reduced_to: 145
  - symbol: In # 170
    coordinates: [  0.386064000000000,  0.886064000000000,  0.500000000000000 ]
    mass: 114.818000
    reduced_to: 145
  - symbol: In # 171
    coordinates: [  0.719397333333333,  0.886064000000000,  0.500000000000000 ]
    mass: 114.818000
    reduced_to: 145
  - symbol: In # 172
    coordinates: [  0.052730666666667,  0.219397333333333,  0.750000000000000 ]
    mass: 114.818000
    reduced_to: 145
  - symbol: In # 173
    coordinates: [  0.386064000000000,  0.219397333333333,  0.750000000000000 ]
    mass: 114.818000
    reduced_to: 145
  - symbol: In # 174
    coordinates: [  0.719397333333333,  0.219397333333333,  0.750000000000000 ]
    mass: 114.818000
    reduced_to: 145
  - symbol: In # 175
    coordinates: [  0.052730666666667,  0.552730666666667,  0.750000000000000 ]
    mass: 114.818000
    reduced_to: 145
  - symbol: In # 176
    coordinates: [  0.386064000000000,  0.552730666666667,  0.750000000000000 ]
    mass: 114.818000
    reduced_to: 145
  - symbol: In # 177
    coordinates: [  0.719397333333333,  0.552730666666667,  0.750000000000000 ]
    mass: 114.818000
    reduced_to: 145
  - symbol: In # 178
    coordinates: [  0.052730666666667,  0.886064000000000,  0.750000000000000 ]
    mass: 114.818000
    reduced_to: 145
  - symbol: In # 179
    coordinates: [  0.386064000000000,  0.886064000000000,  0.750000000000000 ]
    mass: 114.818000
    reduced_to: 145
  - symbol: In # 180
    coordinates: [  0.719397333333333,  0.886064000000000,  0.750000000000000 ]
    mass: 114.818000
    reduced_to: 145
  - symbol: In # 181
    coordinates: [  0.219397333333333,  0.052730666666667,  0.125000000000000 ]
    mass: 114.818000
    reduced_to: 181