calculator: qe
length_unit: au
nqpoint: 204    
npath: 4      
segment_nqpoint:
- 51
- 51
- 51
- 51
reciprocal_lattice:
- [  -0.08253773,   0.08253773,   0.08253773 ] # a*
- [   0.08253773,  -0.08253773,   0.08253773 ] # b*
- [   0.08253773,   0.08253773,  -0.08253773 ] # c*
natom: 3      
lattice:
- [     0.000000000000000,     6.057835500000000,     6.057835500000000 ] # a
- [     6.057835500000000,     0.000000000000000,     6.057835500000000 ] # b
- [     6.057835500000000,     6.057835500000000,     0.000000000000000 ] # c
points:
- symbol: Cu # 1
  coordinates: [  0.000000000000000,  0.000000000000000,  0.000000000000000 ]
  mass: 63.546000
- symbol: In # 2
  coordinates: [  0.750000000000000,  0.750000000000000,  0.750000000000000 ]
  mass: 114.818000
- symbol: In # 3
  coordinates: [  0.250000000000000,  0.250000000000000,  0.250000000000000 ]
  mass: 114.818000

phonon:
- q-position: [    0.0000000,    0.0000000,    0.0000000 ]
  distance:    0.0000000
  band:
  - # 1
    frequency:   -1.6695542566
  - # 2
    frequency:   -1.6695542566
  - # 3
    frequency:   -1.6695542566
  - # 4
    frequency:   -0.0018970365
  - # 5
    frequency:   -0.0018970365
  - # 6
    frequency:   -0.0018970365
  - # 7
    frequency:    4.2195376352
  - # 8
    frequency:    4.2195376352
  - # 9
    frequency:    4.2195376352

- q-position: [    0.0100000,    0.0000000,    0.0000000 ]
  distance:    0.0014296
  band:
  - # 1
    frequency:   -1.6622548400
  - # 2
    frequency:   -1.6622548400
  - # 3
    frequency:   -1.6618072186
  - # 4
    frequency:    0.0739620832
  - # 5
    frequency:    0.0739620832
  - # 6
    frequency:    0.1201903312
  - # 7
    frequency:    4.2191487119
  - # 8
    frequency:    4.2194690481
  - # 9
    frequency:    4.2194690481

- q-position: [    0.0200000,    0.0000000,    0.0000000 ]
  distance:    0.0028592
  band:
  - # 1
    frequency:   -1.6403220082
  - # 2
    frequency:   -1.6403220082
  - # 3
    frequency:   -1.6385742516
  - # 4
    frequency:    0.1482128415
  - # 5
    frequency:    0.1482128415
  - # 6
    frequency:    0.2408052956
  - # 7
    frequency:    4.2179927789
  - # 8
    frequency:    4.2192669098
  - # 9
    frequency:    4.2192669098

- q-position: [    0.0300000,    0.0000000,    0.0000000 ]
  distance:    0.0042888
  band:
  - # 1
    frequency:   -1.6036514273
  - # 2
    frequency:   -1.6036514273
  - # 3
    frequency:   -1.5998813936
  - # 4
    frequency:    0.2230121396
  - # 5
    frequency:    0.2230121396
  - # 6
    frequency:    0.3622340574
  - # 7
    frequency:    4.2161023060
  - # 8
    frequency:    4.2189419964
  - # 9
    frequency:    4.2189419964

- q-position: [    0.0400000,    0.0000000,    0.0000000 ]
  distance:    0.0057184
  band:
  - # 1
    frequency:   -1.5520688566
  - # 2
    frequency:   -1.5520688566
  - # 3
    frequency:   -1.5457756830
  - # 4
    frequency:    0.2987827329
  - # 5
    frequency:    0.2987827329
  - # 6
    frequency:    0.4849185525
  - # 7
    frequency:    4.2135312646
  - # 8
    frequency:    4.2185119645
  - # 9
    frequency:    4.2185119645

- q-position: [    0.0500000,    0.0000000,    0.0000000 ]
  distance:    0.0071480
  band:
  - # 1
    frequency:   -1.4853363716
  - # 2
    frequency:   -1.4853363716
  - # 3
    frequency:   -1.4763228500
  - # 4
    frequency:    0.3761303421
  - # 5
    frequency:    0.3761303421
  - # 6
    frequency:    0.6093093152
  - # 7
    frequency:    4.2103548795
  - # 8
    frequency:    4.2180009093
  - # 9
    frequency:    4.2180009093

- q-position: [    0.0600000,    0.0000000,    0.0000000 ]
  distance:    0.0085776
  band:
  - # 1
    frequency:   -1.4031790802
  - # 2
    frequency:   -1.4031790802
  - # 3
    frequency:   -1.3915808501
  - # 4
    frequency:    0.4559473622
  - # 5
    frequency:    0.4559473622
  - # 6
    frequency:    0.7358276104
  - # 7
    frequency:    4.2066692145
  - # 8
    frequency:    4.2174387731
  - # 9
    frequency:    4.2174387731

- q-position: [    0.0700000,    0.0000000,    0.0000000 ]
  distance:    0.0100072
  band:
  - # 1
    frequency:   -1.3053621479
  - # 2
    frequency:   -1.3053621479
  - # 3
    frequency:   -1.2915051145
  - # 4
    frequency:    0.5395390195
  - # 5
    frequency:    0.5395390195
  - # 6
    frequency:    0.8647807494
  - # 7
    frequency:    4.2025905214
  - # 8
    frequency:    4.2168606276
  - # 9
    frequency:    4.2168606276

- q-position: [    0.0800000,    0.0000000,    0.0000000 ]
  distance:    0.0114368
  band:
  - # 1
    frequency:   -1.1918720208
  - # 2
    frequency:   -1.1918720208
  - # 3
    frequency:   -1.1756914287
  - # 4
    frequency:    0.6287474344
  - # 5
    frequency:    0.6287474344
  - # 6
    frequency:    0.9962281300
  - # 7
    frequency:    4.1982542475
  - # 8
    frequency:    4.2163058541
  - # 9
    frequency:    4.2163058541

- q-position: [    0.0900000,    0.0000000,    0.0000000 ]
  distance:    0.0128664
  band:
  - # 1
    frequency:   -1.0632624149
  - # 2
    frequency:   -1.0632624149
  - # 3
    frequency:   -1.0427619038
  - # 4
    frequency:    0.7259537359
  - # 5
    frequency:    0.7259537359
  - # 6
    frequency:    1.1298237961
  - # 7
    frequency:    4.1938135675
  - # 8
    frequency:    4.2158172463
  - # 9
    frequency:    4.2158172463

- q-position: [    0.1000000,    0.0000000,    0.0000000 ]
  distance:    0.0142960
  band:
  - # 1
    frequency:   -0.9210839681
  - # 2
    frequency:   -0.9210839681
  - # 3
    frequency:   -0.8889263608
  - # 4
    frequency:    0.8336471850
  - # 5
    frequency:    0.8336471850
  - # 6
    frequency:    1.2647040289
  - # 7
    frequency:    4.1894372653
  - # 8
    frequency:    4.2154400571
  - # 9
    frequency:    4.2154400571

- q-position: [    0.1100000,    0.0000000,    0.0000000 ]
  distance:    0.0157255
  band:
  - # 1
    frequency:   -0.7677231770
  - # 2
    frequency:   -0.7677231770
  - # 3
    frequency:   -0.7040481703
  - # 4
    frequency:    0.9531653747
  - # 5
    frequency:    0.9531653747
  - # 6
    frequency:    1.3995038610
  - # 7
    frequency:    4.1853067580
  - # 8
    frequency:    4.2152210015
  - # 9
    frequency:    4.2152210015

- q-position: [    0.1200000,    0.0000000,    0.0000000 ]
  distance:    0.0171551
  band:
  - # 1
    frequency:   -0.6039201352
  - # 2
    frequency:   -0.6039201352
  - # 3
    frequency:   -0.4543865034
  - # 4
    frequency:    1.0829959136
  - # 5
    frequency:    1.0829959136
  - # 6
    frequency:    1.5325305518
  - # 7
    frequency:    4.1816120299
  - # 8
    frequency:    4.2152072254
  - # 9
    frequency:    4.2152072254

- q-position: [    0.1300000,    0.0000000,    0.0000000 ]
  distance:    0.0185847
  band:
  - # 1
    frequency:   -0.4207698785
  - # 2
    frequency:   -0.4207698785
  - # 3
    frequency:    0.2771568117
  - # 4
    frequency:    1.2185213580
  - # 5
    frequency:    1.2185213580
  - # 6
    frequency:    1.6620240594
  - # 7
    frequency:    4.1785462459
  - # 8
    frequency:    4.2154452400
  - # 9
    frequency:    4.2154452400

- q-position: [    0.1400000,    0.0000000,    0.0000000 ]
  distance:    0.0200143
  band:
  - # 1
    frequency:   -0.1464063669
  - # 2
    frequency:   -0.1464063669
  - # 3
    frequency:    0.5956885046
  - # 4
    frequency:    1.3540890385
  - # 5
    frequency:    1.3540890385
  - # 6
    frequency:    1.7863893397
  - # 7
    frequency:    4.1762988594
  - # 8
    frequency:    4.2159798185
  - # 9
    frequency:    4.2159798185

- q-position: [    0.1500000,    0.0000000,    0.0000000 ]
  distance:    0.0214439
  band:
  - # 1
    frequency:    0.3315303674
  - # 2
    frequency:    0.3315303674
  - # 3
    frequency:    0.7930569939
  - # 4
    frequency:    1.4852240029
  - # 5
    frequency:    1.4852240029
  - # 6
    frequency:    1.9043298216
  - # 7
    frequency:    4.1750471458
  - # 8
    frequency:    4.2168528509
  - # 9
    frequency:    4.2168528509

- q-position: [    0.1600000,    0.0000000,    0.0000000 ]
  distance:    0.0228735
  band:
  - # 1
    frequency:    0.4732839872
  - # 2
    frequency:    0.4732839872
  - # 3
    frequency:    0.9489840820
  - # 4
    frequency:    1.6092497562
  - # 5
    frequency:    1.6092497562
  - # 6
    frequency:    2.0148837297
  - # 7
    frequency:    4.1749462963
  - # 8
    frequency:    4.2181021613
  - # 9
    frequency:    4.2181021613

- q-position: [    0.1700000,    0.0000000,    0.0000000 ]
  distance:    0.0243031
  band:
  - # 1
    frequency:    0.5709195938
  - # 2
    frequency:    0.5709195938
  - # 3
    frequency:    1.0821736574
  - # 4
    frequency:    1.7248685695
  - # 5
    frequency:    1.7248685695
  - # 6
    frequency:    2.1174021548
  - # 7
    frequency:    4.1761185086
  - # 8
    frequency:    4.2197602987
  - # 9
    frequency:    4.2197602987

- q-position: [    0.1800000,    0.0000000,    0.0000000 ]
  distance:    0.0257327
  band:
  - # 1
    frequency:    0.6474859160
  - # 2
    frequency:    0.6474859160
  - # 3
    frequency:    1.2007003306
  - # 4
    frequency:    1.8316046711
  - # 5
    frequency:    1.8316046711
  - # 6
    frequency:    2.2115060185
  - # 7
    frequency:    4.1786418867
  - # 8
    frequency:    4.2218533385
  - # 9
    frequency:    4.2218533385

- q-position: [    0.1900000,    0.0000000,    0.0000000 ]
  distance:    0.0271623
  band:
  - # 1
    frequency:    0.7114573810
  - # 2
    frequency:    0.7114573810
  - # 3
    frequency:    1.3089154008
  - # 4
    frequency:    1.9294244878
  - # 5
    frequency:    1.9294244878
  - # 6
    frequency:    2.2970428474
  - # 7
    frequency:    4.1825403386
  - # 8
    frequency:    4.2243997468
  - # 9
    frequency:    4.2243997468

- q-position: [    0.2000000,    0.0000000,    0.0000000 ]
  distance:    0.0285919
  band:
  - # 1
    frequency:    0.7670090469
  - # 2
    frequency:    0.7670090469
  - # 3
    frequency:    1.4094688526
  - # 4
    frequency:    2.0185263590
  - # 5
    frequency:    2.0185263590
  - # 6
    frequency:    2.3740504233
  - # 7
    frequency:    4.1877759273
  - # 8
    frequency:    4.2274093856
  - # 9
    frequency:    4.2274093856

- q-position: [    0.2100000,    0.0000000,    0.0000000 ]
  distance:    0.0300215
  band:
  - # 1
    frequency:    0.8165210561
  - # 2
    frequency:    0.8165210561
  - # 3
    frequency:    1.5041089628
  - # 4
    frequency:    2.0992335861
  - # 5
    frequency:    2.0992335861
  - # 6
    frequency:    2.4427269992
  - # 7
    frequency:    4.1942451425
  - # 8
    frequency:    4.2308827514
  - # 9
    frequency:    4.2308827514

- q-position: [    0.2200000,    0.0000000,    0.0000000 ]
  distance:    0.0314511
  band:
  - # 1
    frequency:    0.8614827659
  - # 2
    frequency:    0.8614827659
  - # 3
    frequency:    1.5940576034
  - # 4
    frequency:    2.1719417662
  - # 5
    frequency:    2.1719417662
  - # 6
    frequency:    2.5034052787
  - # 7
    frequency:    4.2017802243
  - # 8
    frequency:    4.2348105428
  - # 9
    frequency:    4.2348105428

- q-position: [    0.2300000,    0.0000000,    0.0000000 ]
  distance:    0.0328807
  band:
  - # 1
    frequency:    0.9028897414
  - # 2
    frequency:    0.9028897414
  - # 3
    frequency:    1.6802065918
  - # 4
    frequency:    2.2370927049
  - # 5
    frequency:    2.2370927049
  - # 6
    frequency:    2.5565274995
  - # 7
    frequency:    4.2101559722
  - # 8
    frequency:    4.2391736377
  - # 9
    frequency:    4.2391736377

- q-position: [    0.2400000,    0.0000000,    0.0000000 ]
  distance:    0.0343103
  band:
  - # 1
    frequency:    0.9414400760
  - # 2
    frequency:    0.9414400760
  - # 3
    frequency:    1.7632280364
  - # 4
    frequency:    2.2951606217
  - # 5
    frequency:    2.2951606217
  - # 6
    frequency:    2.6026201780
  - # 7
    frequency:    4.2191015719
  - # 8
    frequency:    4.2439435325
  - # 9
    frequency:    4.2439435325

- q-position: [    0.2500000,    0.0000000,    0.0000000 ]
  distance:    0.0357399
  band:
  - # 1
    frequency:    0.9776396929
  - # 2
    frequency:    0.9776396929
  - # 3
    frequency:    1.8436393428
  - # 4
    frequency:    2.3466435558
  - # 5
    frequency:    2.3466435558
  - # 6
    frequency:    2.6422684403
  - # 7
    frequency:    4.2283161021
  - # 8
    frequency:    4.2490832454
  - # 9
    frequency:    4.2490832454

- q-position: [    0.2600000,    0.0000000,    0.0000000 ]
  distance:    0.0371695
  band:
  - # 1
    frequency:    1.0118624368
  - # 2
    frequency:    1.0118624368
  - # 3
    frequency:    1.9218426650
  - # 4
    frequency:    2.3920565497
  - # 5
    frequency:    2.3920565497
  - # 6
    frequency:    2.6760908980
  - # 7
    frequency:    4.2374858067
  - # 8
    frequency:    4.2545486337
  - # 9
    frequency:    4.2545486337

- q-position: [    0.2700000,    0.0000000,    0.0000000 ]
  distance:    0.0385991
  band:
  - # 1
    frequency:    1.0443862721
  - # 2
    frequency:    1.0443862721
  - # 3
    frequency:    1.9981492387
  - # 4
    frequency:    2.4319250532
  - # 5
    frequency:    2.4319250532
  - # 6
    frequency:    2.7047164895
  - # 7
    frequency:    4.2463010975
  - # 8
    frequency:    4.2602900247
  - # 9
    frequency:    4.2602900247

- q-position: [    0.2800000,    0.0000000,    0.0000000 ]
  distance:    0.0400287
  band:
  - # 1
    frequency:    1.0754163168
  - # 2
    frequency:    1.0754163168
  - # 3
    frequency:    2.0727944685
  - # 4
    frequency:    2.4667779481
  - # 5
    frequency:    2.4667779481
  - # 6
    frequency:    2.7287646473
  - # 7
    frequency:    4.2544715583
  - # 8
    frequency:    4.2662540170
  - # 9
    frequency:    4.2662540170

- q-position: [    0.2900000,    0.0000000,    0.0000000 ]
  distance:    0.0414583
  band:
  - # 1
    frequency:    1.1051004340
  - # 2
    frequency:    1.1051004340
  - # 3
    frequency:    2.1459472217
  - # 4
    frequency:    2.4971400948
  - # 5
    frequency:    2.4971400948
  - # 6
    frequency:    2.7488297260
  - # 7
    frequency:    4.2617378236
  - # 8
    frequency:    4.2723852977
  - # 9
    frequency:    4.2723852977

- q-position: [    0.3000000,    0.0000000,    0.0000000 ]
  distance:    0.0428879
  band:
  - # 1
    frequency:    1.1335405417
  - # 2
    frequency:    1.1335405417
  - # 3
    frequency:    2.2177153966
  - # 4
    frequency:    2.5235245577
  - # 5
    frequency:    2.5235245577
  - # 6
    frequency:    2.7654701001
  - # 7
    frequency:    4.2678798827
  - # 8
    frequency:    4.2786283211
  - # 9
    frequency:    4.2786283211

- q-position: [    0.3100000,    0.0000000,    0.0000000 ]
  distance:    0.0443175
  band:
  - # 1
    frequency:    1.1608014165
  - # 2
    frequency:    1.1608014165
  - # 3
    frequency:    2.2881489349
  - # 4
    frequency:    2.5464248009
  - # 5
    frequency:    2.5464248009
  - # 6
    frequency:    2.7792019209
  - # 7
    frequency:    4.2727219469
  - # 8
    frequency:    4.2849287244
  - # 9
    frequency:    4.2849287244

- q-position: [    0.3200000,    0.0000000,    0.0000000 ]
  distance:    0.0457471
  band:
  - # 1
    frequency:    1.1869179649
  - # 2
    frequency:    1.1869179649
  - # 3
    frequency:    2.3572407160
  - # 4
    frequency:    2.5663071984
  - # 5
    frequency:    2.5663071984
  - # 6
    frequency:    2.7904973968
  - # 7
    frequency:    4.2761344222
  - # 8
    frequency:    4.2912343979
  - # 9
    frequency:    4.2912343979

- q-position: [    0.3300000,    0.0000000,    0.0000000 ]
  distance:    0.0471766
  band:
  - # 1
    frequency:    1.2119014672
  - # 2
    frequency:    1.2119014672
  - # 3
    frequency:    2.4249248971
  - # 4
    frequency:    2.5836042148
  - # 5
    frequency:    2.5836042148
  - # 6
    frequency:    2.7997878307
  - # 7
    frequency:    4.2780337298
  - # 8
    frequency:    4.2974961711
  - # 9
    frequency:    4.2974961711

- q-position: [    0.3400000,    0.0000000,    0.0000000 ]
  distance:    0.0486062
  band:
  - # 1
    frequency:    1.2357450170
  - # 2
    frequency:    1.2357450170
  - # 3
    frequency:    2.4910706593
  - # 4
    frequency:    2.5987085962
  - # 5
    frequency:    2.5987085962
  - # 6
    frequency:    2.8074730147
  - # 7
    frequency:    4.2783807528
  - # 8
    frequency:    4.3036681272
  - # 9
    frequency:    4.3036681272

- q-position: [    0.3500000,    0.0000000,    0.0000000 ]
  distance:    0.0500358
  band:
  - # 1
    frequency:    1.2584282246
  - # 2
    frequency:    1.2584282246
  - # 3
    frequency:    2.5554652474
  - # 4
    frequency:    2.6119688610
  - # 5
    frequency:    2.6119688610
  - # 6
    frequency:    2.8139425716
  - # 7
    frequency:    4.2771786191
  - # 8
    frequency:    4.3097075911
  - # 9
    frequency:    4.3097075911

- q-position: [    0.3600000,    0.0000000,    0.0000000 ]
  distance:    0.0514654
  band:
  - # 1
    frequency:    1.2799211851
  - # 2
    frequency:    1.2799211851
  - # 3
    frequency:    2.6177673229
  - # 4
    frequency:    2.6236863193
  - # 5
    frequency:    2.6236863193
  - # 6
    frequency:    2.8196277343
  - # 7
    frequency:    4.2744703954
  - # 8
    frequency:    4.3155748673
  - # 9
    frequency:    4.3155748673

- q-position: [    0.3700000,    0.0000000,    0.0000000 ]
  distance:    0.0528950
  band:
  - # 1
    frequency:    1.3001876977
  - # 2
    frequency:    1.3001876977
  - # 3
    frequency:    2.6341137592
  - # 4
    frequency:    2.6341137592
  - # 5
    frequency:    2.6773619120
  - # 6
    frequency:    2.8251518668
  - # 7
    frequency:    4.2703371172
  - # 8
    frequency:    4.3212328160
  - # 9
    frequency:    4.3212328160

- q-position: [    0.3800000,    0.0000000,    0.0000000 ]
  distance:    0.0543246
  band:
  - # 1
    frequency:    1.3191877560
  - # 2
    frequency:    1.3191877560
  - # 3
    frequency:    2.6434558366
  - # 4
    frequency:    2.6434558366
  - # 5
    frequency:    2.7328119452
  - # 6
    frequency:    2.8318844264
  - # 7
    frequency:    4.2648964140
  - # 8
    frequency:    4.3266463611
  - # 9
    frequency:    4.3266463611

- q-position: [    0.3900000,    0.0000000,    0.0000000 ]
  distance:    0.0557542
  band:
  - # 1
    frequency:    1.3368793735
  - # 2
    frequency:    1.3368793735
  - # 3
    frequency:    2.6518710991
  - # 4
    frequency:    2.6518710991
  - # 5
    frequency:    2.7794917192
  - # 6
    frequency:    2.8443128611
  - # 7
    frequency:    4.2583018245
  - # 8
    frequency:    4.3317820166
  - # 9
    frequency:    4.3317820166

- q-position: [    0.4000000,    0.0000000,    0.0000000 ]
  distance:    0.0571838
  band:
  - # 1
    frequency:    1.3532198595
  - # 2
    frequency:    1.3532198595
  - # 3
    frequency:    2.6594754683
  - # 4
    frequency:    2.6594754683
  - # 5
    frequency:    2.8068068884
  - # 6
    frequency:    2.8728278212
  - # 7
    frequency:    4.2507427103
  - # 8
    frequency:    4.3366075057
  - # 9
    frequency:    4.3366075057

- q-position: [    0.4100000,    0.0000000,    0.0000000 ]
  distance:    0.0586134
  band:
  - # 1
    frequency:    1.3681666930
  - # 2
    frequency:    1.3681666930
  - # 3
    frequency:    2.6663469184
  - # 4
    frequency:    2.6663469184
  - # 5
    frequency:    2.8172705810
  - # 6
    frequency:    2.9146522777
  - # 7
    frequency:    4.2424444573
  - # 8
    frequency:    4.3410915279
  - # 9
    frequency:    4.3410915279

- q-position: [    0.4200000,    0.0000000,    0.0000000 ]
  distance:    0.0600430
  band:
  - # 1
    frequency:    1.3816781592
  - # 2
    frequency:    1.3816781592
  - # 3
    frequency:    2.6725310306
  - # 4
    frequency:    2.6725310306
  - # 5
    frequency:    2.8219288880
  - # 6
    frequency:    2.9584217442
  - # 7
    frequency:    4.2336683853
  - # 8
    frequency:    4.3452037084
  - # 9
    frequency:    4.3452037084

- q-position: [    0.4300000,    0.0000000,    0.0000000 ]
  distance:    0.0614726
  band:
  - # 1
    frequency:    1.3937138973
  - # 2
    frequency:    1.3937138973
  - # 3
    frequency:    2.6780470708
  - # 4
    frequency:    2.6780470708
  - # 5
    frequency:    2.8246152914
  - # 6
    frequency:    2.9999367954
  - # 7
    frequency:    4.2247104654
  - # 8
    frequency:    4.3489147410
  - # 9
    frequency:    4.3489147410

- q-position: [    0.4400000,    0.0000000,    0.0000000 ]
  distance:    0.0629022
  band:
  - # 1
    frequency:    1.4042354763
  - # 2
    frequency:    1.4042354763
  - # 3
    frequency:    2.6828942463
  - # 4
    frequency:    2.6828942463
  - # 5
    frequency:    2.8264019898
  - # 6
    frequency:    3.0377210209
  - # 7
    frequency:    4.2158976080
  - # 8
    frequency:    4.3521967153
  - # 9
    frequency:    4.3521967153

- q-position: [    0.4500000,    0.0000000,    0.0000000 ]
  distance:    0.0643318
  band:
  - # 1
    frequency:    1.4132070664
  - # 2
    frequency:    1.4132070664
  - # 3
    frequency:    2.6870578236
  - # 4
    frequency:    2.6870578236
  - # 5
    frequency:    2.8276743451
  - # 6
    frequency:    3.0709595304
  - # 7
    frequency:    4.2075800333
  - # 8
    frequency:    4.3550235975
  - # 9
    frequency:    4.3550235975

- q-position: [    0.4600000,    0.0000000,    0.0000000 ]
  distance:    0.0657614
  band:
  - # 1
    frequency:    1.4205962215
  - # 2
    frequency:    1.4205962215
  - # 3
    frequency:    2.6905148387
  - # 4
    frequency:    2.6905148387
  - # 5
    frequency:    2.8286023273
  - # 6
    frequency:    3.0990454569
  - # 7
    frequency:    4.2001182683
  - # 8
    frequency:    4.3573718205
  - # 9
    frequency:    4.3573718205

- q-position: [    0.4700000,    0.0000000,    0.0000000 ]
  distance:    0.0671910
  band:
  - # 1
    frequency:    1.4263747414
  - # 2
    frequency:    1.4263747414
  - # 3
    frequency:    2.6932391901
  - # 4
    frequency:    2.6932391901
  - # 5
    frequency:    2.8292709317
  - # 6
    frequency:    3.1214732249
  - # 7
    frequency:    4.1938638947
  - # 8
    frequency:    4.3592209276
  - # 9
    frequency:    4.3592209276

- q-position: [    0.4800000,    0.0000000,    0.0000000 ]
  distance:    0.0686206
  band:
  - # 1
    frequency:    1.4305195478
  - # 2
    frequency:    1.4305195478
  - # 3
    frequency:    2.6952059577
  - # 4
    frequency:    2.6952059577
  - # 5
    frequency:    2.8297254630
  - # 6
    frequency:    3.1378220964
  - # 7
    frequency:    4.1891345238
  - # 8
    frequency:    4.3605542086
  - # 9
    frequency:    4.3605542086

- q-position: [    0.4900000,    0.0000000,    0.0000000 ]
  distance:    0.0700502
  band:
  - # 1
    frequency:    1.4330134901
  - # 2
    frequency:    1.4330134901
  - # 3
    frequency:    2.6963948423
  - # 4
    frequency:    2.6963948423
  - # 5
    frequency:    2.8299902580
  - # 6
    frequency:    3.1477687861
  - # 7
    frequency:    4.1861855320
  - # 8
    frequency:    4.3613592695
  - # 9
    frequency:    4.3613592695

- q-position: [    0.5000000,    0.0000000,    0.0000000 ]
  distance:    0.0714798
  band:
  - # 1
    frequency:    1.4338459952
  - # 2
    frequency:    1.4338459952
  - # 3
    frequency:    2.6967926582
  - # 4
    frequency:    2.6967926582
  - # 5
    frequency:    2.8300773181
  - # 6
    frequency:    3.1511078893
  - # 7
    frequency:    4.1851832583
  - # 8
    frequency:    4.3616284818
  - # 9
    frequency:    4.3616284818

- q-position: [    0.5000000,    0.0000000,    0.0000000 ]
  distance:    0.0714798
  band:
  - # 1
    frequency:    1.4338459952
  - # 2
    frequency:    1.4338459952
  - # 3
    frequency:    2.6967926582
  - # 4
    frequency:    2.6967926582
  - # 5
    frequency:    2.8300773181
  - # 6
    frequency:    3.1511078893
  - # 7
    frequency:    4.1851832583
  - # 8
    frequency:    4.3616284818
  - # 9
    frequency:    4.3616284818

- q-position: [    0.5000000,    0.0100000,    0.0000000 ]
  distance:    0.0729094
  band:
  - # 1
    frequency:    1.4338971327
  - # 2
    frequency:    1.4356568716
  - # 3
    frequency:    2.6936777885
  - # 4
    frequency:    2.6957136402
  - # 5
    frequency:    2.8308362510
  - # 6
    frequency:    3.1497126462
  - # 7
    frequency:    4.1861258620
  - # 8
    frequency:    4.3619025630
  - # 9
    frequency:    4.3622490842

- q-position: [    0.5000000,    0.0200000,    0.0000000 ]
  distance:    0.0743390
  band:
  - # 1
    frequency:    1.4340641823
  - # 2
    frequency:    1.4410756863
  - # 3
    frequency:    2.6846192863
  - # 4
    frequency:    2.6924962166
  - # 5
    frequency:    2.8328709802
  - # 6
    frequency:    3.1455792839
  - # 7
    frequency:    4.1889091317
  - # 8
    frequency:    4.3627335907
  - # 9
    frequency:    4.3641114101

- q-position: [    0.5000000,    0.0300000,    0.0000000 ]
  distance:    0.0757686
  band:
  - # 1
    frequency:    1.4343871706
  - # 2
    frequency:    1.4500600742
  - # 3
    frequency:    2.6703064781
  - # 4
    frequency:    2.6871994159
  - # 5
    frequency:    2.8356231738
  - # 6
    frequency:    3.1388620274
  - # 7
    frequency:    4.1934020925
  - # 8
    frequency:    4.3641483720
  - # 9
    frequency:    4.3672165911

- q-position: [    0.5000000,    0.0400000,    0.0000000 ]
  distance:    0.0771982
  band:
  - # 1
    frequency:    1.4349298959
  - # 2
    frequency:    1.4625364026
  - # 3
    frequency:    2.6515272063
  - # 4
    frequency:    2.6799220004
  - # 5
    frequency:    2.8385195641
  - # 6
    frequency:    3.1298089902
  - # 7
    frequency:    4.1993948294
  - # 8
    frequency:    4.3661929360
  - # 9
    frequency:    4.3715651571

- q-position: [    0.5000000,    0.0500000,    0.0000000 ]
  distance:    0.0786277
  band:
  - # 1
    frequency:    1.4357756987
  - # 2
    frequency:    1.4783954110
  - # 3
    frequency:    2.6289911397
  - # 4
    frequency:    2.6708027920
  - # 5
    frequency:    2.8411429614
  - # 6
    frequency:    3.1187508566
  - # 7
    frequency:    4.2066097386
  - # 8
    frequency:    4.3689339092
  - # 9
    frequency:    4.3771551917

- q-position: [    0.5000000,    0.0600000,    0.0000000 ]
  distance:    0.0800573
  band:
  - # 1
    frequency:    1.4370218319
  - # 2
    frequency:    1.4974864603
  - # 3
    frequency:    2.6033003034
  - # 4
    frequency:    2.6600206608
  - # 5
    frequency:    2.8432537473
  - # 6
    frequency:    3.1060884247
  - # 7
    frequency:    4.2147155162
  - # 8
    frequency:    4.3724589499
  - # 9
    frequency:    4.3839800996

- q-position: [    0.5000000,    0.0700000,    0.0000000 ]
  distance:    0.0814869
  band:
  - # 1
    frequency:    1.4387727577
  - # 2
    frequency:    1.5196107563
  - # 3
    frequency:    2.5749802597
  - # 4
    frequency:    2.6477937766
  - # 5
    frequency:    2.8447485243
  - # 6
    frequency:    3.0922810012
  - # 7
    frequency:    4.2233436767
  - # 8
    frequency:    4.3768744183
  - # 9
    frequency:    4.3920262661

- q-position: [    0.5000000,    0.0800000,    0.0000000 ]
  distance:    0.0829165
  band:
  - # 1
    frequency:    1.4411328153
  - # 2
    frequency:    1.5445140335
  - # 3
    frequency:    2.5445163169
  - # 4
    frequency:    2.6343776866
  - # 5
    frequency:    2.8456118150
  - # 6
    frequency:    3.0778368903
  - # 7
    frequency:    4.2321085068
  - # 8
    frequency:    4.3822978946
  - # 9
    frequency:    4.4012708897

- q-position: [    0.5000000,    0.0900000,    0.0000000 ]
  distance:    0.0843461
  band:
  - # 1
    frequency:    1.4441988247
  - # 2
    frequency:    1.5718793362
  - # 3
    frequency:    2.5123779316
  - # 4
    frequency:    2.6200618020
  - # 5
    frequency:    2.8458780964
  - # 6
    frequency:    3.0633062580
  - # 7
    frequency:    4.2406317032
  - # 8
    frequency:    4.3888435091
  - # 9
    frequency:    4.4116802271

- q-position: [    0.5000000,    0.1000000,    0.0000000 ]
  distance:    0.0857757
  band:
  - # 1
    frequency:    1.4480532786
  - # 2
    frequency:    1.6013207302
  - # 3
    frequency:    2.4790308374
  - # 4
    frequency:    2.6051639418
  - # 5
    frequency:    2.8456052525
  - # 6
    frequency:    3.0492757027
  - # 7
    frequency:    4.2485712500
  - # 8
    frequency:    4.3966003687
  - # 9
    frequency:    4.4232084214

- q-position: [    0.5000000,    0.1100000,    0.0000000 ]
  distance:    0.0872053
  band:
  - # 1
    frequency:    1.4527588064
  - # 2
    frequency:    1.6323790233
  - # 3
    frequency:    2.4449403442
  - # 4
    frequency:    2.5900226969
  - # 5
    frequency:    2.8448567535
  - # 6
    frequency:    3.0363630643
  - # 7
    frequency:    4.2556500853
  - # 8
    frequency:    4.4056087915
  - # 9
    frequency:    4.4357969974

- q-position: [    0.5000000,    0.1200000,    0.0000000 ]
  distance:    0.0886349
  band:
  - # 1
    frequency:    1.4583545390
  - # 2
    frequency:    1.6645208877
  - # 3
    frequency:    2.4105691704
  - # 4
    frequency:    2.5749875474
  - # 5
    frequency:    2.8436900438
  - # 6
    frequency:    3.0252103885
  - # 7
    frequency:    4.2616762825
  - # 8
    frequency:    4.4158431048
  - # 9
    frequency:    4.4493750230

- q-position: [    0.5000000,    0.1300000,    0.0000000 ]
  distance:    0.0900645
  band:
  - # 1
    frequency:    1.4648548376
  - # 2
    frequency:    1.6971430875
  - # 3
    frequency:    2.3763722887
  - # 4
    frequency:    2.5604068786
  - # 5
    frequency:    2.8421494816
  - # 6
    frequency:    3.0164725937
  - # 7
    frequency:    4.2665471644
  - # 8
    frequency:    4.4272091059
  - # 9
    frequency:    4.4638598650

- q-position: [    0.5000000,    0.1400000,    0.0000000 ]
  distance:    0.0914941
  band:
  - # 1
    frequency:    1.4722505775
  - # 2
    frequency:    1.7295837170
  - # 3
    frequency:    2.3427904451
  - # 4
    frequency:    2.5466143096