
     Program PWSCF v.7.1 starts on 17May2023 at  8:29:25 

     This program is part of the open-source Quantum ESPRESSO suite
     for quantum simulation of materials; please cite
         "P. Giannozzi et al., J. Phys.:Condens. Matter 21 395502 (2009);
         "P. Giannozzi et al., J. Phys.:Condens. Matter 29 465901 (2017);
         "P. Giannozzi et al., J. Chem. Phys. 152 154105 (2020);
          URL http://www.quantum-espresso.org", 
     in publications or presentations arising from this work. More details at
     http://www.quantum-espresso.org/quote

     Parallel version (MPI), running on     1 processors

     MPI processes distributed on     1 nodes
     24675 MiB available memory on the printing compute node when the environment starts

     Reading input from CuC1-001.in

     Current dimensions of program PWSCF are:
     Max number of different atomic species (ntypx) = 10
     Max number of k-points (npk) =  40000
     Max angular momentum in pseudopotentials (lmaxx) =  4
     file Cu.pbe-dn-rrkjus_psl.1.0.0.UPF: wavefunction(s)  3D renormalized
     file In.pbe-dn-rrkjus_psl.1.0.0.UPF: wavefunction(s)  5S 4D renormalized
     Message from routine setup:
     using ibrav=0 with symmetry is DISCOURAGED, use correct ibrav instead

     Subspace diagonalization in iterative solution of the eigenvalue problem:
     a serial algorithm will be used


     G-vector sticks info
     --------------------
     sticks:   dense  smooth     PW     G-vecs:    dense   smooth      PW
     Sum       11213   11213   2933               893835   893835  119177

     Using Slab Decomposition



     bravais-lattice index     =            0
     lattice parameter (alat)  =      24.2313  a.u.
     unit-cell volume          =   14227.6247 (a.u.)^3
     number of atoms/cell      =           96
     number of atomic types    =            2
     number of electrons       =      1184.00
     number of Kohn-Sham states=          592
     kinetic-energy cutoff     =      60.0000  Ry
     charge density cutoff     =     240.0000  Ry
     scf convergence threshold =      1.0E-07
     mixing beta               =       0.7000
     number of iterations used =            8  plain     mixing
     Exchange-correlation= PBE
                           (   1   4   3   4   0   0   0)

     celldm(1)=  24.231342  celldm(2)=   0.000000  celldm(3)=   0.000000
     celldm(4)=   0.000000  celldm(5)=   0.000000  celldm(6)=   0.000000

     crystal axes: (cart. coord. in units of alat)
               a(1) = (   1.000000   0.000000   0.000000 )  
               a(2) = (   0.000000   1.000000   0.000000 )  
               a(3) = (   0.000000   0.000000   1.000000 )  

     reciprocal axes: (cart. coord. in units 2 pi/alat)
               b(1) = (  1.000000  0.000000  0.000000 )  
               b(2) = (  0.000000  1.000000  0.000000 )  
               b(3) = (  0.000000  0.000000  1.000000 )  


     PseudoPot. # 1 for Cu read from file:
     ./pseudos/Cu.pbe-dn-rrkjus_psl.1.0.0.UPF
     MD5 check sum: ba3d6c84e19846e79d48cdc68ff7152b
     Pseudo is Ultrasoft + core correction, Zval = 11.0
     Generated using &quot;atomic&quot; code by A. Dal Corso  v.6.3
     Using radial grid of 1199 points,  6 beta functions with: 
                l(1) =   0
                l(2) =   0
                l(3) =   1
                l(4) =   1
                l(5) =   2
                l(6) =   2
     Q(r) pseudized with 0 coefficients 


     PseudoPot. # 2 for In read from file:
     ./pseudos/In.pbe-dn-rrkjus_psl.1.0.0.UPF
     MD5 check sum: 7267d4f9f57825930b619e54710f1f3b
     Pseudo is Ultrasoft + core correction, Zval = 13.0
     Generated using &quot;atomic&quot; code by A. Dal Corso  v.6.3
     Using radial grid of 1241 points,  6 beta functions with: 
                l(1) =   0
                l(2) =   0
                l(3) =   1
                l(4) =   1
                l(5) =   2
                l(6) =   2
     Q(r) pseudized with 0 coefficients 


     atomic species   valence    mass     pseudopotential
        Cu            11.00    63.54600     Cu( 1.00)
        In            13.00   114.81800     In( 1.00)

      8 Sym. Ops. (no inversion) found



   Cartesian axes

     site n.     atom                  positions (alat units)
         1           Cu  tau(   1) = (   0.0008254   0.0000000   0.0000000  )
         2           Cu  tau(   2) = (   0.5000000   0.0000000   0.0000000  )
         3           Cu  tau(   3) = (   0.0000000   0.5000000   0.0000000  )
         4           Cu  tau(   4) = (   0.5000000   0.5000000   0.0000000  )
         5           Cu  tau(   5) = (   0.0000000   0.0000000   0.5000000  )
         6           Cu  tau(   6) = (   0.5000000   0.0000000   0.5000000  )
         7           Cu  tau(   7) = (   0.0000000   0.5000000   0.5000000  )
         8           Cu  tau(   8) = (   0.5000000   0.5000000   0.5000000  )
         9           Cu  tau(   9) = (   0.2500000   0.0000000   0.2500000  )
        10           Cu  tau(  10) = (   0.7500000   0.0000000   0.2500000  )
        11           Cu  tau(  11) = (   0.2500000   0.5000000   0.2500000  )
        12           Cu  tau(  12) = (   0.7500000   0.5000000   0.2500000  )
        13           Cu  tau(  13) = (   0.2500000   0.0000000   0.7500000  )
        14           Cu  tau(  14) = (   0.7500000   0.0000000   0.7500000  )
        15           Cu  tau(  15) = (   0.2500000   0.5000000   0.7500000  )
        16           Cu  tau(  16) = (   0.7500000   0.5000000   0.7500000  )
        17           Cu  tau(  17) = (   0.0000000   0.2500000   0.2500000  )
        18           Cu  tau(  18) = (   0.5000000   0.2500000   0.2500000  )
        19           Cu  tau(  19) = (   0.0000000   0.7500000   0.2500000  )
        20           Cu  tau(  20) = (   0.5000000   0.7500000   0.2500000  )
        21           Cu  tau(  21) = (   0.0000000   0.2500000   0.7500000  )
        22           Cu  tau(  22) = (   0.5000000   0.2500000   0.7500000  )
        23           Cu  tau(  23) = (   0.0000000   0.7500000   0.7500000  )
        24           Cu  tau(  24) = (   0.5000000   0.7500000   0.7500000  )
        25           Cu  tau(  25) = (   0.2500000   0.2500000   0.0000000  )
        26           Cu  tau(  26) = (   0.7500000   0.2500000   0.0000000  )
        27           Cu  tau(  27) = (   0.2500000   0.7500000   0.0000000  )
        28           Cu  tau(  28) = (   0.7500000   0.7500000   0.0000000  )
        29           Cu  tau(  29) = (   0.2500000   0.2500000   0.5000000  )
        30           Cu  tau(  30) = (   0.7500000   0.2500000   0.5000000  )
        31           Cu  tau(  31) = (   0.2500000   0.7500000   0.5000000  )
        32           Cu  tau(  32) = (   0.7500000   0.7500000   0.5000000  )
        33           In  tau(  33) = (   0.3750000   0.1250000   0.1250000  )
        34           In  tau(  34) = (   0.8750000   0.1250000   0.1250000  )
        35           In  tau(  35) = (   0.3750000   0.6250000   0.1250000  )
        36           In  tau(  36) = (   0.8750000   0.6250000   0.1250000  )
        37           In  tau(  37) = (   0.3750000   0.1250000   0.6250000  )
        38           In  tau(  38) = (   0.8750000   0.1250000   0.6250000  )
        39           In  tau(  39) = (   0.3750000   0.6250000   0.6250000  )
        40           In  tau(  40) = (   0.8750000   0.6250000   0.6250000  )
        41           In  tau(  41) = (   0.1250000   0.1250000   0.3750000  )
        42           In  tau(  42) = (   0.6250000   0.1250000   0.3750000  )
        43           In  tau(  43) = (   0.1250000   0.6250000   0.3750000  )
        44           In  tau(  44) = (   0.6250000   0.6250000   0.3750000  )
        45           In  tau(  45) = (   0.1250000   0.1250000   0.8750000  )
        46           In  tau(  46) = (   0.6250000   0.1250000   0.8750000  )
        47           In  tau(  47) = (   0.1250000   0.6250000   0.8750000  )
        48           In  tau(  48) = (   0.6250000   0.6250000   0.8750000  )
        49           In  tau(  49) = (   0.3750000   0.3750000   0.3750000  )
        50           In  tau(  50) = (   0.8750000   0.3750000   0.3750000  )
        51           In  tau(  51) = (   0.3750000   0.8750000   0.3750000  )
        52           In  tau(  52) = (   0.8750000   0.8750000   0.3750000  )
        53           In  tau(  53) = (   0.3750000   0.3750000   0.8750000  )
        54           In  tau(  54) = (   0.8750000   0.3750000   0.8750000  )
        55           In  tau(  55) = (   0.3750000   0.8750000   0.8750000  )
        56           In  tau(  56) = (   0.8750000   0.8750000   0.8750000  )
        57           In  tau(  57) = (   0.1250000   0.3750000   0.1250000  )
        58           In  tau(  58) = (   0.6250000   0.3750000   0.1250000  )
        59           In  tau(  59) = (   0.1250000   0.8750000   0.1250000  )
        60           In  tau(  60) = (   0.6250000   0.8750000   0.1250000  )
        61           In  tau(  61) = (   0.1250000   0.3750000   0.6250000  )
        62           In  tau(  62) = (   0.6250000   0.3750000   0.6250000  )
        63           In  tau(  63) = (   0.1250000   0.8750000   0.6250000  )
        64           In  tau(  64) = (   0.6250000   0.8750000   0.6250000  )
        65           In  tau(  65) = (   0.1250000   0.3750000   0.3750000  )
        66           In  tau(  66) = (   0.6250000   0.3750000   0.3750000  )
        67           In  tau(  67) = (   0.1250000   0.8750000   0.3750000  )
        68           In  tau(  68) = (   0.6250000   0.8750000   0.3750000  )
        69           In  tau(  69) = (   0.1250000   0.3750000   0.8750000  )
        70           In  tau(  70) = (   0.6250000   0.3750000   0.8750000  )
        71           In  tau(  71) = (   0.1250000   0.8750000   0.8750000  )
        72           In  tau(  72) = (   0.6250000   0.8750000   0.8750000  )
        73           In  tau(  73) = (   0.3750000   0.3750000   0.1250000  )
        74           In  tau(  74) = (   0.8750000   0.3750000   0.1250000  )
        75           In  tau(  75) = (   0.3750000   0.8750000   0.1250000  )
        76           In  tau(  76) = (   0.8750000   0.8750000   0.1250000  )
        77           In  tau(  77) = (   0.3750000   0.3750000   0.6250000  )
        78           In  tau(  78) = (   0.8750000   0.3750000   0.6250000  )
        79           In  tau(  79) = (   0.3750000   0.8750000   0.6250000  )
        80           In  tau(  80) = (   0.8750000   0.8750000   0.6250000  )
        81           In  tau(  81) = (   0.1250000   0.1250000   0.1250000  )
        82           In  tau(  82) = (   0.6250000   0.1250000   0.1250000  )
        83           In  tau(  83) = (   0.1250000   0.6250000   0.1250000  )
        84           In  tau(  84) = (   0.6250000   0.6250000   0.1250000  )
        85           In  tau(  85) = (   0.1250000   0.1250000   0.6250000  )
        86           In  tau(  86) = (   0.6250000   0.1250000   0.6250000  )
        87           In  tau(  87) = (   0.1250000   0.6250000   0.6250000  )
        88           In  tau(  88) = (   0.6250000   0.6250000   0.6250000  )
        89           In  tau(  89) = (   0.3750000   0.1250000   0.3750000  )
        90           In  tau(  90) = (   0.8750000   0.1250000   0.3750000  )
        91           In  tau(  91) = (   0.3750000   0.6250000   0.3750000  )
        92           In  tau(  92) = (   0.8750000   0.6250000   0.3750000  )
        93           In  tau(  93) = (   0.3750000   0.1250000   0.8750000  )
        94           In  tau(  94) = (   0.8750000   0.1250000   0.8750000  )
        95           In  tau(  95) = (   0.3750000   0.6250000   0.8750000  )
        96           In  tau(  96) = (   0.8750000   0.6250000   0.8750000  )

     number of k points=     6
                       cart. coord. in units 2pi/alat
        k(    1) = (   0.1250000   0.1250000   0.1250000), wk =   0.2500000
        k(    2) = (   0.1250000   0.1250000   0.3750000), wk =   0.5000000
        k(    3) = (   0.1250000   0.3750000   0.3750000), wk =   0.2500000
        k(    4) = (   0.3750000   0.3750000   0.3750000), wk =   0.2500000
        k(    5) = (   0.3750000  -0.1250000   0.1250000), wk =   0.2500000
        k(    6) = (   0.3750000  -0.3750000   0.1250000), wk =   0.5000000

     Dense  grid:   893835 G-vectors     FFT dimensions: ( 120, 120, 120)

     Estimated max dynamical RAM per process >      16.27 GB

     Check: negative core charge=   -0.000001

     Initial potential from superposition of free atoms

     starting charge    1183.7547, renormalised to    1184.0000
     Starting wfcs are  864 randomized atomic wfcs

     total cpu time spent up to now is     1683.2 secs

     Self-consistent Calculation

     iteration #  1     ecut=    60.00 Ry     beta= 0.70
     Davidson diagonalization with overlap
     ethr =  1.00E-02,  avg # of iterations =  2.0

     Threshold (ethr) on eigenvalues was too large:
     Diagonalizing with lowered threshold

     Davidson diagonalization with overlap
     ethr =  8.18E-05,  avg # of iterations =  6.0

     total cpu time spent up to now is    10443.9 secs

     total energy              =  -12903.60316930 Ry
     estimated scf accuracy    <       1.40729337 Ry

     iteration #  2     ecut=    60.00 Ry     beta= 0.70
     Davidson diagonalization with overlap
     ethr =  1.19E-04,  avg # of iterations =  2.5

     total cpu time spent up to now is    15026.7 secs

     total energy              =  -12903.79936340 Ry
     estimated scf accuracy    <       0.43370514 Ry

     iteration #  3     ecut=    60.00 Ry     beta= 0.70
     Davidson diagonalization with overlap
     ethr =  3.66E-05,  avg # of iterations =  5.2

     total cpu time spent up to now is    19791.5 secs

     total energy              =  -12903.78715599 Ry
     estimated scf accuracy    <       1.08958732 Ry

     iteration #  4     ecut=    60.00 Ry     beta= 0.70
     Davidson diagonalization with overlap
     ethr =  3.66E-05,  avg # of iterations =  5.0

     total cpu time spent up to now is    23790.4 secs

     total energy              =  -12903.96651928 Ry
     estimated scf accuracy    <       0.01189826 Ry

     iteration #  5     ecut=    60.00 Ry     beta= 0.70
     Davidson diagonalization with overlap
     ethr =  1.00E-06,  avg # of iterations =  6.0

     total cpu time spent up to now is    27971.1 secs

     total energy              =  -12903.96799943 Ry
     estimated scf accuracy    <       0.00812040 Ry

     iteration #  6     ecut=    60.00 Ry     beta= 0.70
     Davidson diagonalization with overlap
     ethr =  6.86E-07,  avg # of iterations = 10.7

     total cpu time spent up to now is    32116.8 secs

     total energy              =  -12903.96696030 Ry
     estimated scf accuracy    <       0.03244492 Ry

     iteration #  7     ecut=    60.00 Ry     beta= 0.70
     Davidson diagonalization with overlap
     ethr =  6.86E-07,  avg # of iterations = 10.3

     total cpu time spent up to now is    36230.2 secs

     total energy              =  -12903.96934381 Ry
     estimated scf accuracy    <       0.00046629 Ry

     iteration #  8     ecut=    60.00 Ry     beta= 0.70
     Davidson diagonalization with overlap
     ethr =  3.94E-08,  avg # of iterations =  7.8

     total cpu time spent up to now is    40479.7 secs

     total energy              =  -12903.96944205 Ry
     estimated scf accuracy    <       0.00013941 Ry

     iteration #  9     ecut=    60.00 Ry     beta= 0.70
     Davidson diagonalization with overlap
     c_bands:  1 eigenvalues not converged
     ethr =  1.18E-08,  avg # of iterations = 10.3

     total cpu time spent up to now is    44464.3 secs

     total energy              =  -12903.96944488 Ry
     estimated scf accuracy    <       0.00009089 Ry

     iteration # 10     ecut=    60.00 Ry     beta= 0.70
     Davidson diagonalization with overlap
     c_bands:  1 eigenvalues not converged
     ethr =  7.68E-09,  avg # of iterations = 11.0

     total cpu time spent up to now is    48546.1 secs

     total energy              =  -12903.96945126 Ry
     estimated scf accuracy    <       0.00006455 Ry

     iteration # 11     ecut=    60.00 Ry     beta= 0.70
     Davidson diagonalization with overlap
     c_bands:  1 eigenvalues not converged
     ethr =  5.45E-09,  avg # of iterations = 10.3

     total cpu time spent up to now is    52013.8 secs

     total energy              =  -12903.96945360 Ry
     estimated scf accuracy    <       0.00000704 Ry

     iteration # 12     ecut=    60.00 Ry     beta= 0.70
     Davidson diagonalization with overlap
     c_bands:  1 eigenvalues not converged
     ethr =  5.94E-10,  avg # of iterations = 11.2

     total cpu time spent up to now is    56567.4 secs

     total energy              =  -12903.96945770 Ry
     estimated scf accuracy    <       0.00004755 Ry

     iteration # 13     ecut=    60.00 Ry     beta= 0.70
     Davidson diagonalization with overlap
     c_bands:  1 eigenvalues not converged
     ethr =  5.94E-10,  avg # of iterations =  5.2

     total cpu time spent up to now is    59872.0 secs

     total energy              =  -12903.96945727 Ry
     estimated scf accuracy    <       0.00003536 Ry

     iteration # 14     ecut=    60.00 Ry     beta= 0.70
     Davidson diagonalization with overlap
     c_bands:  1 eigenvalues not converged
     ethr =  5.94E-10,  avg # of iterations =  4.5

     total cpu time spent up to now is    62885.5 secs

     total energy              =  -12903.96945507 Ry
     estimated scf accuracy    <       0.00003026 Ry

     iteration # 15     ecut=    60.00 Ry     beta= 0.70
     Davidson diagonalization with overlap
     c_bands:  1 eigenvalues not converged
     ethr =  5.94E-10,  avg # of iterations = 11.3

     total cpu time spent up to now is    66542.4 secs

     total energy              =  -12903.96945507 Ry
     estimated scf accuracy    <       0.00001454 Ry

     iteration # 16     ecut=    60.00 Ry     beta= 0.70
     Davidson diagonalization with overlap
     c_bands:  1 eigenvalues not converged
     ethr =  5.94E-10,  avg # of iterations = 10.0

     total cpu time spent up to now is    70229.8 secs

     total energy              =  -12903.96945441 Ry
     estimated scf accuracy    <       0.00001404 Ry

     iteration # 17     ecut=    60.00 Ry     beta= 0.70
     Davidson diagonalization with overlap
     c_bands:  1 eigenvalues not converged
     ethr =  5.94E-10,  avg # of iterations =  9.7

     total cpu time spent up to now is    74085.1 secs

     total energy              =  -12903.96945379 Ry
     estimated scf accuracy    <       0.00000896 Ry

     iteration # 18     ecut=    60.00 Ry     beta= 0.70
     Davidson diagonalization with overlap
     c_bands:  1 eigenvalues not converged
     ethr =  5.94E-10,  avg # of iterations = 10.8

     total cpu time spent up to now is    78150.6 secs

     total energy              =  -12903.96945372 Ry
     estimated scf accuracy    <       0.00000812 Ry

     iteration # 19     ecut=    60.00 Ry     beta= 0.70
     Davidson diagonalization with overlap
     c_bands:  1 eigenvalues not converged
     ethr =  5.94E-10,  avg # of iterations = 10.5

     total cpu time spent up to now is    82005.4 secs

     total energy              =  -12903.96945421 Ry
     estimated scf accuracy    <       0.00000315 Ry

     iteration # 20     ecut=    60.00 Ry     beta= 0.70
     Davidson diagonalization with overlap
     c_bands:  1 eigenvalues not converged
     ethr =  2.66E-10,  avg # of iterations =  9.3

     total cpu time spent up to now is    85657.3 secs

     total energy              =  -12903.96945436 Ry
     estimated scf accuracy    <       0.00000083 Ry

     iteration # 21     ecut=    60.00 Ry     beta= 0.70
     Davidson diagonalization with overlap
     c_bands:  1 eigenvalues not converged
     ethr =  7.00E-11,  avg # of iterations = 11.2

     total cpu time spent up to now is    89815.2 secs

     total energy              =  -12903.96945466 Ry
     estimated scf accuracy    <       0.00000163 Ry

     iteration # 22     ecut=    60.00 Ry     beta= 0.70
     Davidson diagonalization with overlap
     c_bands:  1 eigenvalues not converged
     ethr =  7.00E-11,  avg # of iterations = 11.7

     total cpu time spent up to now is    93517.6 secs

     total energy              =  -12903.96945490 Ry
     estimated scf accuracy    <       0.00000042 Ry

     iteration # 23     ecut=    60.00 Ry     beta= 0.70
     Davidson diagonalization with overlap
     c_bands:  1 eigenvalues not converged
     ethr =  3.53E-11,  avg # of iterations =  7.0

     total cpu time spent up to now is    96972.6 secs

     total energy              =  -12903.96945495 Ry
     estimated scf accuracy    <       0.00000020 Ry

     iteration # 24     ecut=    60.00 Ry     beta= 0.70
     Davidson diagonalization with overlap
     c_bands:  1 eigenvalues not converged
     ethr =  1.73E-11,  avg # of iterations = 10.3

     total cpu time spent up to now is   100600.0 secs

     End of self-consistent calculation

          k = 0.1250 0.1250 0.1250 (111629 PWs)   bands (ev):

    -4.5332  -4.5330  -4.5178  -4.5174  -4.5171  -4.5100  -4.5097  -4.5094
    -4.4938  -4.4938  -4.4937  -4.4442  -4.4439  -4.4438  -4.4371  -4.4371
    -4.4370  -4.4277  -4.4277  -4.4274  -4.4273  -4.4273  -4.4273  -4.4159
    -4.4159  -4.4157  -4.4059  -4.4059  -4.4058  -4.4053  -4.4053  -4.4049
    -4.4049  -4.4049  -4.4046  -4.4046  -4.4044  -4.4044  -4.3875  -4.3872
    -4.3871  -4.3840  -4.3826  -4.3826  -4.3751  -4.3751  -4.3748  -4.3747
    -4.3742  -4.3742  -4.3511  -4.3510  -4.3507  -4.3507  -4.3506  -4.3503
    -4.3354  -4.3352  -4.3349  -4.3345  -4.3344  -4.3342  -4.3340  -4.3340
    -4.3338  -4.3329  -4.3328  -4.3328  -4.3172  -4.3170  -4.3169  -4.3117
    -4.3114  -4.3112  -4.3069  -4.3068  -4.3064  -4.3064  -4.3062  -4.3061
    -4.3060  -4.3059  -4.3058  -4.2925  -4.2921  -4.2919  -4.2904  -4.2902
    -4.2900  -4.2900  -4.2898  -4.2897  -4.2859  -4.2857  -4.2809  -4.2809
    -4.2807  -4.2780  -4.2779  -4.2777  -4.2776  -4.2775  -4.2774  -4.2741
    -4.2738  -4.2737  -4.2709  -4.2697  -4.2697  -4.2696  -4.2679  -4.2678
    -4.2675  -4.2674  -4.2672  -4.2671  -4.2655  -4.2652  -4.2649  -4.2564
    -4.2563  -4.2562  -4.2425  -4.2424  -4.2424  -4.2423  -4.2422  -4.2379
    -4.2379  -4.2378  -4.2282  -4.2281  -4.2280  -4.2279  -4.2275  -4.2275
    -4.2221  -4.2220  -4.2220  -4.2219  -4.2218  -4.2217  -4.2206  -4.2206
    -4.2206  -4.2148  -4.2148  -4.2147  -4.2145  -4.2142  -4.2142  -4.2139
    -4.2138  -4.2138  -4.2127  -4.2127  -4.2127  -4.2033  -4.2032  -4.2032
    -4.2031  -4.2030  -4.2030  -4.2030  -4.2028  -4.2028  -4.1985  -4.1984
    -4.1984  -4.1976  -4.1976  -4.1976  -4.1948  -4.1947  -4.1946  -4.1936
    -4.1936  -4.1935  -4.1935  -4.1934  -4.1934  -4.1914  -4.1914  -4.1914
    -4.1914  -4.1913  -4.1913  -4.1878  -4.1878  -4.1877  -4.1871  -4.1871
    -4.1871  -4.1870  -4.1870  -4.1870  -4.1830  -4.1761  -4.1760  -4.1760
    -4.1757  -4.1757  -4.1730  -4.1730  -4.1729  -4.1682  -4.1682  -4.1682
    -4.1664  -4.1661  -4.1658  -4.1534  -4.1531  -4.1530  -4.1523  -4.1523
    -4.1521  -4.1484  -4.1482  -4.1454  -4.1451  -4.1448  -4.1433  -4.1431
    -4.1428  -4.1427  -4.1424  -4.1423  -4.1368  -4.1368  -4.1365  -4.1363
    -4.1362  -4.1361  -4.1353  -4.1350  -4.1349  -4.1331  -4.1329  -4.1326
    -4.1326  -4.1324  -4.1323  -4.1305  -4.1304  -4.1301  -4.1157  -4.1156
    -4.1153  -4.1152  -4.1150  -4.1149  -4.1089  -4.1086  -4.1085  -4.1078
    -4.1076  -4.1074  -4.1056  -4.1056  -4.1053  -4.1052  -4.1051  -4.1050
    -4.0979  -4.0977  -4.0975  -4.0974  -4.0973  -4.0971  -4.0845  -4.0845
    -4.0842  -4.0841  -4.0837  -4.0837  -4.0650  -4.0648  -4.0647  -4.0594
    -4.0593  -4.0591  -4.0491  -4.0491  -4.0490  -4.0482  -4.0482  -4.0480
    -4.0415  -4.0413  -4.0412  -4.0412  -4.0412  -4.0411  -4.0252  -4.0251
    -4.0247  -4.0247  -4.0244  -4.0243  -4.0036  -4.0036  -4.0034  -4.0033
    -4.0032  -4.0032  -3.9826  -3.9823  -3.9823  -3.8847  -3.8847  -3.8845
    -3.8814  -3.8810  -3.8808  -3.8795  -3.8793  -3.8789  -3.8757  -3.8755
     0.8543   1.5821   1.5824   1.5830   2.0696   2.0699   2.0705   2.2919
     2.2922   2.2928   2.7625   2.7626   2.7628   2.7630   2.7634   2.7639
     2.9430   3.2183   3.2187   3.2192   3.3059   3.3060   3.3062   4.0758
     4.0760   4.0762   4.0903   4.0904   4.0905   4.4180   4.6169   4.6169
     4.6172   4.6172   4.6177   4.6181   4.9720   4.9721   4.9723   4.9725
     4.9728   4.9728   5.1432   5.1434   5.1439   5.4369   5.4371   5.4372
     5.4374   5.4376   5.4378   5.5602   5.5604   5.5605   5.6977   5.6979
     5.6982   5.8624   5.8624   5.8625   6.1051   6.1055   6.1056   6.1057
     6.1058   6.1063   6.1659   6.1661   6.1664   6.3311   6.3313   6.3315
     6.6359   6.6363   6.6364   6.6365   6.6367   6.6369   6.6405   6.6406
     6.6406   6.6936   6.7295   6.7295   6.7297   6.7297   6.7299   6.7300
     6.7353   6.7354   6.7577   6.7578   6.7580   6.8190   6.8193   6.8195
     6.8210   6.8213   6.8217   6.8767   6.8769   6.8770   6.8824   6.8827
     6.8828   6.8851   6.8851   6.8851   6.8907   6.8907   6.8985   6.8985
     6.8985   6.9458   6.9461   6.9462   6.9837   6.9839   6.9840   6.9841
     6.9842   6.9845   7.0138   7.0140   7.0141   7.0403   7.0406   7.0406
     7.1051   7.1055   7.1057   7.1057   7.1060   7.1061   7.1087   7.1090
     7.1093   7.1143   7.1146   7.1146   7.1187   7.1187   7.1188   7.1201
     7.1202   7.1203   7.1203   7.1206   7.1206   7.1216   7.1218   7.1221
     7.1259   7.1260   7.1262   7.1284   7.1285   7.1285   7.1889   7.1890
     7.1890   7.1943   7.1944   7.1946   7.1959   7.1961   7.1961   7.1962
     7.1962   7.1963   7.1990   7.1992   7.2017   7.2019   7.2020   7.2022
     7.2022   7.2024   7.2025   7.2029   7.2030   7.2031   7.2031   7.2032
     7.2034   7.2037   7.2085   7.2087   7.2087   7.2279   7.2279   7.2281
     7.2282   7.2282   7.2282   7.2462   7.2867   7.2868   7.2870   7.2871
     7.2872   7.2872   7.3683   7.3685   7.3685   7.4348   7.4348   7.4350
     7.4350   7.4353   7.4354   7.4621   7.4623   7.4625   7.6381   7.6382
     7.6383   7.6385   7.6389   7.6390   7.8687   7.8688   7.8689   7.9220
     7.9221   7.9223   8.1879   8.1879   8.1881   8.1883   8.1887   8.1890
     8.2730   8.2731   8.2732   8.2809   8.2813   8.2815   8.2815   8.2818
     8.2820   8.6201   8.6201   8.6201   8.6413   8.6416   8.6421   8.9544
     8.9548   8.9554   9.4100   9.4103   9.4106   9.4207   9.4211   9.4215
     9.7004   9.7008   9.7010   9.7083   9.7083   9.7083  10.2831  10.2833
    10.2837  10.3036  10.3040  10.3043  10.3985  10.3988  10.3992  10.4444

          k = 0.1250 0.1250 0.3750 (111627 PWs)   bands (ev):

    -4.5302  -4.5247  -4.5054  -4.5024  -4.4977  -4.4974  -4.4968  -4.4897
    -4.4894  -4.4739  -4.4737  -4.4686  -4.4684  -4.4582  -4.4579  -4.4544
    -4.4408  -4.4407  -4.4330  -4.4255  -4.4202  -4.4201  -4.4165  -4.4160
    -4.4136  -4.4090  -4.4085  -4.4002  -4.4000  -4.3975  -4.3975  -4.3949
    -4.3910  -4.3910  -4.3898  -4.3894  -4.3891  -4.3890  -4.3874  -4.3801
    -4.3797  -4.3768  -4.3761  -4.3752  -4.3751  -4.3734  -4.3712  -4.3711
    -4.3689  -4.3682  -4.3636  -4.3634  -4.3578  -4.3529  -4.3527  -4.3481
    -4.3475  -4.3463  -4.3461  -4.3436  -4.3434  -4.3427  -4.3421  -4.3420
    -4.3415  -4.3410  -4.3404  -4.3394  -4.3392  -4.3373  -4.3371  -4.3262
    -4.3257  -4.3215  -4.3208  -4.3208  -4.3163  -4.3160  -4.3157  -4.3123
    -4.3118  -4.3090  -4.3084  -4.3046  -4.3044  -4.3013  -4.2989  -4.2969
    -4.2967  -4.2966  -4.2949  -4.2935  -4.2933  -4.2916  -4.2880  -4.2873
    -4.2868  -4.2864  -4.2857  -4.2793  -4.2789  -4.2784  -4.2783  -4.2782
    -4.2781  -4.2775  -4.2765  -4.2736  -4.2711  -4.2710  -4.2706  -4.2696
    -4.2695  -4.2693  -4.2691  -4.2666  -4.2665  -4.2574  -4.2572  -4.2556
    -4.2554  -4.2553  -4.2520  -4.2519  -4.2502  -4.2501  -4.2482  -4.2481
    -4.2433  -4.2410  -4.2402  -4.2401  -4.2400  -4.2365  -4.2357  -4.2356
    -4.2347  -4.2332  -4.2330  -4.2309  -4.2306  -4.2258  -4.2258  -4.2219
    -4.2218  -4.2207  -4.2206  -4.2202  -4.2202  -4.2167  -4.2166  -4.2165
    -4.2165  -4.2152  -4.2152  -4.2104  -4.2103  -4.2078  -4.2076  -4.2062
    -4.2062  -4.2044  -4.2044  -4.2035  -4.2029  -4.2020  -4.1971  -4.1970
    -4.1955  -4.1955  -4.1895  -4.1895  -4.1880  -4.1880  -4.1874  -4.1871
    -4.1868  -4.1865  -4.1864  -4.1860  -4.1834  -4.1833  -4.1828  -4.1812
    -4.1810  -4.1808  -4.1795  -4.1794  -4.1764  -4.1763  -4.1762  -4.1751
    -4.1750  -4.1739  -4.1738  -4.1683  -4.1677  -4.1676  -4.1639  -4.1638
    -4.1632  -4.1632  -4.1631  -4.1618  -4.1617  -4.1614  -4.1612  -4.1592
    -4.1590  -4.1582  -4.1580  -4.1569  -4.1567  -4.1550  -4.1549  -4.1533
    -4.1531  -4.1504  -4.1503  -4.1476  -4.1471  -4.1454  -4.1452  -4.1450
    -4.1438  -4.1438  -4.1435  -4.1417  -4.1412  -4.1411  -4.1410  -4.1396
    -4.1390  -4.1387  -4.1353  -4.1349  -4.1317  -4.1315  -4.1294  -4.1292
    -4.1254  -4.1253  -4.1250  -4.1218  -4.1201  -4.1182  -4.1180  -4.1146
    -4.1140  -4.1133  -4.1129  -4.1128  -4.1122  -4.1099  -4.1097  -4.1029
    -4.1024  -4.1024  -4.1019  -4.0991  -4.0986  -4.0961  -4.0959  -4.0898
    -4.0896  -4.0883  -4.0882  -4.0805  -4.0804  -4.0792  -4.0791  -4.0777
    -4.0773  -4.0741  -4.0739  -4.0733  -4.0723  -4.0722  -4.0712  -4.0701
    -4.0700  -4.0647  -4.0643  -4.0596  -4.0595  -4.0590  -4.0589  -4.0581
    -4.0558  -4.0527  -4.0523  -4.0522  -4.0522  -4.0450  -4.0425  -4.0337
    -4.0336  -4.0218  -4.0213  -4.0152  -4.0147  -4.0144  -3.9764  -3.9632
    -3.9630  -3.9542  -3.9539  -3.9467  -3.9465  -3.9128  -3.9126  -3.9112
    -3.9083  -3.9079  -3.9057  -3.9054  -3.8840  -3.8827  -3.8776  -3.8763
     0.9750   1.2174   1.7004   1.7010   1.9371   1.9377   2.1856   2.1862
     2.4038   2.4170   2.4176   2.6242   2.6751   2.8672   2.8676   3.0664
     3.0668   3.3071   3.3407   3.3413   3.3783   3.4318   3.7709   3.7715
     3.9980   3.9986   4.1691   4.1693   4.1865   4.3529   4.3531   4.3739
     4.3746   4.5134   4.5137   4.6834   4.7512   4.7517   4.8777   4.9043
     4.9048   5.0318   5.0321   5.0630   5.0634   5.2188   5.2192   5.3315
     5.3317   5.3561   5.6045   5.6048   5.7352   5.7352   5.7458   5.7463
     5.8794   5.8795   5.9157   5.9652   5.9655   6.0103   6.0107   6.0215
     6.1929   6.1932   6.3158   6.3321   6.3324   6.4913   6.5073   6.5075
     6.6188   6.6309   6.6312   6.6612   6.6616   6.6960   6.6962   6.7481
     6.7531   6.7628   6.7751   6.7800   6.7829   6.7831   6.7908   6.7910
     6.7934   6.7938   6.8004   6.8005   6.8054   6.8057   6.8146   6.8294
     6.8408   6.8411   6.8460   6.8586   6.8590   6.8595   6.8596   6.8660
     6.9011   6.9013   6.9014   6.9044   6.9048   6.9106   6.9110   6.9138
     6.9138   6.9241   6.9254   6.9477   6.9478   6.9491   6.9495   6.9639
     6.9679   6.9738   6.9742   6.9852   6.9913   6.9914   7.0477   7.0480
     7.0493   7.0494   7.0520   7.0625   7.0720   7.0722   7.0784   7.0788
     7.0845   7.0847   7.0977   7.0980   7.1060   7.1061   7.1197   7.1197
     7.1238   7.1240   7.1280   7.1281   7.1291   7.1294   7.1295   7.1300
     7.1366   7.1436   7.1437   7.1479   7.1509   7.1566   7.1605   7.1621
     7.1623   7.1682   7.1682   7.1750   7.1754   7.1785   7.1801   7.1802
     7.1809   7.1811   7.1856   7.1891   7.1973   7.1974   7.1988   7.1989
     7.1996   7.1998   7.1999   7.2016   7.2019   7.2022   7.2027   7.2030
     7.2031   7.2036   7.2039   7.2040   7.2042   7.2062   7.2064   7.2066
     7.2252   7.2419   7.2420   7.2542   7.2543   7.2851   7.2853   7.2932
     7.3150   7.3152   7.3332   7.3333   7.3529   7.3661   7.3663   7.3784
     7.3785   7.4326   7.4327   7.5421   7.5423   7.5449   7.5545   7.5869
     7.5872   7.6060   7.6061   7.6655   7.6657   7.8352   7.8356   7.8723
     7.8724   7.9398   7.9405   8.1573   8.2939   8.2942   8.3751   8.3752
     8.3796   8.3802   8.4552   8.5448   8.5449   8.6129   8.6132   8.6231
     8.6385   8.6389   8.7742   8.7746   8.7788   8.7941   8.7945   8.8274
     9.0106   9.0111   9.0817   9.0820   9.1771   9.1777   9.2004   9.4076
     9.4082   9.5107   9.6254   9.6351   9.6357   9.7632   9.7639   9.7857
     9.8804   9.9392   9.9398   9.9611   9.9728   9.9733  10.2064  10.2070

          k = 0.1250 0.3750 0.3750 (111665 PWs)   bands (ev):

    -4.5151  -4.5057  -4.5055  -4.4896  -4.4832  -4.4825  -4.4824  -4.4769
    -4.4769  -4.4747  -4.4673  -4.4521  -4.4500  -4.4500  -4.4441  -4.4439
    -4.4422  -4.4421  -4.4407  -4.4406  -4.4318  -4.4316  -4.4164  -4.4164
    -4.4159  -4.4158  -4.4093  -4.4093  -4.4071  -4.4039  -4.3940  -4.3874
    -4.3870  -4.3870  -4.3856  -4.3856  -4.3849  -4.3808  -4.3808  -4.3801
    -4.3801  -4.3792  -4.3792  -4.3770  -4.3767  -4.3751  -4.3749  -4.3733
    -4.3720  -4.3687  -4.3656  -4.3609  -4.3584  -4.3583  -4.3572  -4.3571
    -4.3567  -4.3567  -4.3543  -4.3505  -4.3503  -4.3496  -4.3496  -4.3454
    -4.3445  -4.3444  -4.3437  -4.3427  -4.3410  -4.3408  -4.3353  -4.3353
    -4.3320  -4.3317  -4.3317  -4.3301  -4.3295  -4.3294  -4.3281  -4.3279
    -4.3279  -4.3278  -4.3213  -4.3199  -4.3198  -4.3093  -4.3092  -4.3091
    -4.3091  -4.3056  -4.3056  -4.3027  -4.2994  -4.2994  -4.2976  -4.2944
    -4.2939  -4.2926  -4.2926  -4.2896  -4.2896  -4.2790  -4.2757  -4.2757
    -4.2715  -4.2714  -4.2713  -4.2711  -4.2709  -4.2694  -4.2694  -4.2603
    -4.2603  -4.2592  -4.2592  -4.2588  -4.2560  -4.2553  -4.2544  -4.2544
    -4.2524  -4.2495  -4.2495  -4.2492  -4.2492  -4.2437  -4.2436  -4.2426
    -4.2392  -4.2391  -4.2388  -4.2387  -4.2384  -4.2367  -4.2367  -4.2352
    -4.2351  -4.2351  -4.2321  -4.2321  -4.2286  -4.2285  -4.2248  -4.2246
    -4.2193  -4.2191  -4.2190  -4.2153  -4.2153  -4.2128  -4.2127  -4.2119
    -4.2087  -4.2087  -4.2087  -4.2087  -4.2080  -4.2080  -4.2051  -4.2051
    -4.2036  -4.2035  -4.2014  -4.2014  -4.1999  -4.1999  -4.1985  -4.1985
    -4.1966  -4.1965  -4.1965  -4.1929  -4.1929  -4.1885  -4.1885  -4.1868
    -4.1867  -4.1859  -4.1859  -4.1850  -4.1850  -4.1848  -4.1846  -4.1834
    -4.1827  -4.1826  -4.1826  -4.1825  -4.1790  -4.1790  -4.1777  -4.1776
    -4.1775  -4.1774  -4.1773  -4.1749  -4.1749  -4.1704  -4.1703  -4.1694
    -4.1693  -4.1686  -4.1669  -4.1669  -4.1646  -4.1646  -4.1606  -4.1592
    -4.1589  -4.1588  -4.1583  -4.1582  -4.1582  -4.1579  -4.1579  -4.1549
    -4.1539  -4.1539  -4.1538  -4.1537  -4.1536  -4.1534  -4.1534  -4.1529
    -4.1529  -4.1494  -4.1478  -4.1473  -4.1473  -4.1337  -4.1337  -4.1322
    -4.1322  -4.1297  -4.1267  -4.1260  -4.1260  -4.1252  -4.1233  -4.1231
    -4.1204  -4.1161  -4.1161  -4.1141  -4.1141  -4.1132  -4.1125  -4.1052
    -4.1024  -4.1023  -4.1022  -4.1022  -4.1022  -4.1021  -4.0998  -4.0997
    -4.0952  -4.0952  -4.0946  -4.0926  -4.0926  -4.0913  -4.0911  -4.0904
    -4.0903  -4.0886  -4.0886  -4.0876  -4.0853  -4.0834  -4.0833  -4.0822
    -4.0813  -4.0762  -4.0762  -4.0738  -4.0738  -4.0704  -4.0697  -4.0692
    -4.0685  -4.0665  -4.0665  -4.0632  -4.0560  -4.0560  -4.0536  -4.0536
    -4.0495  -4.0495  -4.0437  -4.0437  -4.0410  -4.0333  -4.0300  -4.0236
    -3.9909  -3.9908  -3.9874  -3.9873  -3.9830  -3.9829  -3.9776  -3.9774
    -3.9617  -3.9615  -3.9587  -3.9587  -3.9406  -3.9357  -3.9334  -3.9316
    -3.9288  -3.9119  -3.9119  -3.9103  -3.9102  -3.9025  -3.9024  -3.8949
     1.0954   1.3370   1.3371   1.5769   1.8181   2.0527   2.0528   2.2826
     2.3003   2.5284   2.5286   2.7483   2.7870   2.7872   3.0100   3.0101
     3.4298   3.4300   3.4837   3.4837   3.5578   3.5578   3.6924   3.6926
     3.8009   3.8010   4.0386   4.0386   4.2590   4.2666   4.2805   4.2805
     4.4270   4.4272   4.4499   4.4501   4.6166   4.6166   4.6705   4.7727
     4.7728   4.8873   4.8874   4.9646   5.3000   5.3139   5.4198   5.4199
     5.4259   5.4259   5.5578   5.5578   5.7028   5.7028   5.7334   5.7334
     5.7872   5.8479   5.8511   5.8513   6.0073   6.0525   6.0527   6.1856
     6.2673   6.3727   6.3728   6.3823   6.3823   6.4997   6.4998   6.5224
     6.6780   6.6780   6.7197   6.7198   6.7580   6.7750   6.7750   6.7760
     6.7761   6.7762   6.7762   6.7774   6.7837   6.8077   6.8078   6.8183
     6.8184   6.8251   6.8252   6.8290   6.8291   6.8357   6.8358   6.8414
     6.8511   6.8533   6.8533   6.8623   6.8643   6.8704   6.8711   6.8792
     6.8895   6.8909   6.8909   6.8967   6.9189   6.9190   6.9269   6.9270
     6.9366   6.9367   6.9444   6.9445   6.9591   6.9592   6.9716   6.9716
     6.9731   6.9732   6.9733   6.9915   6.9915   7.0274   7.0275   7.0403
     7.0403   7.0480   7.0480   7.0516   7.0517   7.0545   7.0545   7.0591
     7.0728   7.0728   7.0731   7.0732   7.0884   7.0885   7.0898   7.0900
     7.0955   7.1042   7.1078   7.1229   7.1229   7.1250   7.1330   7.1331
     7.1369   7.1482   7.1484   7.1523   7.1589   7.1611   7.1612   7.1650
     7.1650   7.1679   7.1701   7.1701   7.1709   7.1808   7.1809   7.1812
     7.1812   7.1837   7.1912   7.1912   7.1956   7.1956   7.1973   7.1980
     7.1982   7.1986   7.1988   7.1988   7.1997   7.2003   7.2003   7.2007
     7.2008   7.2015   7.2017   7.2032   7.2036   7.2041   7.2042   7.2049
     7.2050   7.2123   7.2123   7.2426   7.2426   7.2489   7.2490   7.2628
     7.2628   7.2692   7.2692   7.3160   7.3264   7.3264   7.3403   7.4269
     7.4269   7.5345   7.5509   7.5509   7.5915   7.5916   7.6010   7.6011
     7.6074   7.6923   7.7698   7.7699   7.8337   7.8337   7.8769   7.8959
     7.8960   7.9414   7.9414   8.0472   8.0472   8.1109   8.1109   8.2457
     8.2825   8.2826   8.4216   8.4217   8.5045   8.5045   8.6354   8.6354
     8.7206   8.7567   8.7567   8.9692   8.9724   8.9726   9.0062   9.0062
     9.1712   9.1712   9.1876   9.1876   9.2309   9.2309   9.2599   9.2599
     9.4133   9.4134   9.5976   9.6000   9.6000   9.6131   9.7840   9.7841
     9.7914   9.8165   9.9618  10.0455  10.0456  10.0477  10.1164  10.1164

          k = 0.3750 0.3750 0.3750 (111652 PWs)   bands (ev):

    -4.4869  -4.4867  -4.4819  -4.4816  -4.4813  -4.4608  -4.4605  -4.4602
    -4.4553  -4.4552  -4.4551  -4.4541  -4.4537  -4.4536  -4.4350  -4.4347
    -4.4347  -4.4248  -4.4248  -4.4244  -4.4243  -4.4241  -4.4241  -4.4194
    -4.4193  -4.4189  -4.4189  -4.4186  -4.4185  -4.4050  -4.4047  -4.4044
    -4.4003  -4.4003  -4.4002  -4.4002  -4.4000  -4.3936  -4.3936  -4.3934
    -4.3813  -4.3813  -4.3811  -4.3765  -4.3762  -4.3759  -4.3712  -4.3711
    -4.3708  -4.3708  -4.3706  -4.3705  -4.3670  -4.3669  -4.3668  -4.3656
    -4.3648  -4.3648  -4.3645  -4.3644  -4.3643  -4.3640  -4.3546  -4.3545
    -4.3477  -4.3476  -4.3475  -4.3471  -4.3471  -4.3468  -4.3376  -4.3376
    -4.3375  -4.3332  -4.3329  -4.3324  -4.3323  -4.3322  -4.3322  -4.3294
    -4.3291  -4.3290  -4.3287  -4.3284  -4.3282  -4.3260  -4.3254  -4.3254
    -4.3252  -4.3250  -4.3246  -4.3246  -4.3120  -4.3119  -4.3119  -4.3050
    -4.3049  -4.3046  -4.3044  -4.3043  -4.2766  -4.2764  -4.2764  -4.2652
    -4.2652  -4.2650  -4.2649  -4.2645  -4.2644  -4.2508  -4.2505  -4.2504
    -4.2412  -4.2410  -4.2407  -4.2381  -4.2380  -4.2377  -4.2377  -4.2375
    -4.2374  -4.2285  -4.2283  -4.2282  -4.2272  -4.2271  -4.2270  -4.2268
    -4.2268  -4.2266  -4.2266  -4.2264  -4.2264  -4.2225  -4.2225  -4.2224
    -4.2213  -4.2211  -4.2209  -4.2206  -4.2203  -4.2202  -4.2131  -4.2130
    -4.2129  -4.2129  -4.2127  -4.2126  -4.2091  -4.2090  -4.2090  -4.2075
    -4.2074  -4.2074  -4.2027  -4.2026  -4.2025  -4.2024  -4.2023  -4.2023
    -4.2023  -4.2022  -4.2021  -4.2020  -4.2020  -4.2020  -4.2018  -4.2017
    -4.2017  -4.2005  -4.2004  -4.2004  -4.1996  -4.1994  -4.1994  -4.1994
    -4.1992  -4.1991  -4.1987  -4.1986  -4.1986  -4.1942  -4.1942  -4.1942
    -4.1942  -4.1941  -4.1941  -4.1921  -4.1920  -4.1920  -4.1916  -4.1916
    -4.1916  -4.1859  -4.1857  -4.1854  -4.1824  -4.1823  -4.1823  -4.1810
    -4.1807  -4.1805  -4.1798  -4.1796  -4.1794  -4.1793  -4.1792  -4.1790
    -4.1764  -4.1763  -4.1762  -4.1753  -4.1752  -4.1749  -4.1739  -4.1736
    -4.1735  -4.1725  -4.1723  -4.1721  -4.1720  -4.1719  -4.1718  -4.1508
    -4.1508  -4.1505  -4.1504  -4.1500  -4.1500  -4.1331  -4.1328  -4.1328
    -4.1240  -4.1240  -4.1239  -4.1238  -4.1202  -4.1201  -4.1095  -4.1095
    -4.1094  -4.1046  -4.1046  -4.1045  -4.1019  -4.1017  -4.1014  -4.1006
    -4.1002  -4.1001  -4.0993  -4.0991  -4.0989  -4.0986  -4.0985  -4.0982
    -4.0884  -4.0884  -4.0881  -4.0879  -4.0878  -4.0878  -4.0856  -4.0855
    -4.0852  -4.0851  -4.0850  -4.0850  -4.0801  -4.0801  -4.0799  -4.0779
    -4.0779  -4.0777  -4.0674  -4.0674  -4.0673  -4.0648  -4.0648  -4.0647
    -4.0398  -4.0395  -4.0392  -4.0368  -4.0368  -4.0366  -4.0272  -4.0271
    -4.0252  -4.0249  -4.0246  -3.9941  -3.9938  -3.9937  -3.9899  -3.9898
    -3.9894  -3.9894  -3.9891  -3.9891  -3.9872  -3.9871  -3.9868  -3.9867
    -3.9865  -3.9865  -3.9655  -3.9652  -3.9651  -3.9398  -3.9398  -3.9396
    -3.9383  -3.9380  -3.9377  -3.9317  -3.9314  -3.9311  -3.9299  -3.9297
     1.2154   1.4557   1.4560   1.4566   1.6942   1.6946   1.6951   1.9301
     2.8964   2.8967   2.8973   3.1134   3.1135   3.1137   3.1139   3.1142
     3.1148   3.3129   3.3132   3.3134   3.5852   3.5855   3.5857   3.7823
     3.7824   3.7826   3.7827   3.7831   3.7836   3.9223   3.9226   3.9232
     4.5407   4.5411   4.5416   4.6982   4.6984   4.6986   5.0175   5.0175
     5.0177   5.0178   5.0182   5.0183   5.1911   5.1912   5.1913   5.1915
     5.1918   5.1919   5.4463   5.4464   5.4466   5.5945   5.5947   5.5952
     5.6624   5.9850   5.9852   5.9854   6.2249   6.2252   6.2254   6.4076
     6.4486   6.4487   6.4488   6.5566   6.5569   6.5569   6.5570   6.5572
     6.5575   6.6378   6.6379   6.6379   6.7916   6.7917   6.7996   6.7997
     6.7999   6.8000   6.8004   6.8004   6.8079   6.8081   6.8082   6.8095
     6.8098   6.8099   6.8180   6.8181   6.8181   6.8193   6.8195   6.8199
     6.8243   6.8246   6.8252   6.8592   6.8595   6.8596   6.8596   6.8597
     6.9401   6.9401   6.9402   6.9533   6.9536   6.9537   6.9541   6.9542
     6.9545   6.9545   6.9547   6.9550   6.9741   6.9744   6.9745   6.9746
     6.9747   6.9750   6.9971   6.9973   6.9974   7.0271   7.0271   7.0272
     7.0340   7.0341   7.0345   7.0571   7.0572   7.0574   7.0576   7.0578
     7.0578   7.0846   7.0848   7.0849   7.0999   7.1000   7.1002   7.1182
     7.1184   7.1185   7.1186   7.1188   7.1188   7.1564   7.1564   7.1564
     7.1638   7.1641   7.1644   7.1661   7.1663   7.1664   7.1683   7.1686
     7.1689   7.1817   7.1819   7.1871   7.1873   7.1874   7.1874   7.1875
     7.1923   7.1926   7.1926   7.1931   7.1933   7.1936   7.1950   7.1951
     7.1952   7.1964   7.1965   7.1966   7.1966   7.1967   7.1967   7.2003
     7.2006   7.2009   7.2026   7.2027   7.2028   7.2029   7.2032   7.2032
     7.2051   7.2053   7.2053   7.2077   7.2077   7.2078   7.2079   7.2081
     7.2082   7.2375   7.2376   7.2376   7.2563   7.2564   7.2565   7.3171
     7.3171   7.3174   7.3174   7.3178   7.3179   7.5297   7.5301   7.5307
     7.8033   7.9394   7.9395   7.9397   7.9397   7.9401   7.9403   7.9594
     7.9596   7.9598   8.0905   8.0906   8.0907   8.1987   8.1990   8.1992
     8.6122   8.6124   8.6126   8.6421   8.6421   8.6423   8.6424   8.6429
     8.6431   8.6852   8.6855   8.6859   8.9747   8.9750   8.9753   9.1507
     9.1509   9.1509   9.1512   9.1514   9.1516   9.1517   9.1522   9.1522
     9.2269   9.4907   9.4912   9.4914   9.5417   9.5419   9.5421   9.5422
     9.5427   9.5430   9.7486   9.7490   9.7493  10.0409  10.0409  10.0409

          k = 0.3750-0.1250 0.1250 (111627 PWs)   bands (ev):

    -4.5300  -4.5245  -4.5055  -4.5023  -4.4976  -4.4976  -4.4967  -4.4896
    -4.4896  -4.4739  -4.4739  -4.4685  -4.4685  -4.4581  -4.4581  -4.4545
    -4.4408  -4.4408  -4.4329  -4.4254  -4.4202  -4.4202  -4.4162  -4.4161
    -4.4137  -4.4087  -4.4086  -4.4002  -4.4002  -4.3976  -4.3976  -4.3948
    -4.3911  -4.3910  -4.3895  -4.3895  -4.3891  -4.3891  -4.3873  -4.3798
    -4.3797  -4.3766  -4.3765  -4.3752  -4.3751  -4.3735  -4.3712  -4.3712
    -4.3689  -4.3682  -4.3636  -4.3635  -4.3579  -4.3527  -4.3527  -4.3478
    -4.3476  -4.3462  -4.3462  -4.3436  -4.3436  -4.3425  -4.3424  -4.3421
    -4.3415  -4.3407  -4.3405  -4.3393  -4.3393  -4.3372  -4.3372  -4.3261
    -4.3260  -4.3215  -4.3209  -4.3208  -4.3165  -4.3159  -4.3158  -4.3120
    -4.3119  -4.3087  -4.3086  -4.3045  -4.3045  -4.3013  -4.2990  -4.2970
    -4.2967  -4.2967  -4.2949  -4.2934  -4.2934  -4.2915  -4.2879  -4.2870
    -4.2869  -4.2862  -4.2861  -4.2791  -4.2790  -4.2784  -4.2784  -4.2782
    -4.2782  -4.2775  -4.2763  -4.2735  -4.2712  -4.2708  -4.2707  -4.2694
    -4.2694  -4.2693  -4.2692  -4.2666  -4.2666  -4.2574  -4.2573  -4.2556
    -4.2554  -4.2554  -4.2521  -4.2520  -4.2502  -4.2502  -4.2482  -4.2482
    -4.2432  -4.2410  -4.2402  -4.2402  -4.2399  -4.2366  -4.2357  -4.2357
    -4.2347  -4.2331  -4.2331  -4.2309  -4.2306  -4.2256  -4.2256  -4.2217
    -4.2217  -4.2205  -4.2205  -4.2201  -4.2201  -4.2167  -4.2167  -4.2164
    -4.2164  -4.2151  -4.2151  -4.2104  -4.2104  -4.2077  -4.2077  -4.2061
    -4.2061  -4.2043  -4.2043  -4.2035  -4.2030  -4.2021  -4.1970  -4.1969
    -4.1954  -4.1954  -4.1894  -4.1894  -4.1879  -4.1879  -4.1875  -4.1871
    -4.1869  -4.1865  -4.1863  -4.1859  -4.1834  -4.1834  -4.1828  -4.1812
    -4.1811  -4.1807  -4.1794  -4.1794  -4.1765  -4.1765  -4.1762  -4.1751
    -4.1751  -4.1740  -4.1739  -4.1684  -4.1676  -4.1675  -4.1639  -4.1637
    -4.1636  -4.1632  -4.1632  -4.1617  -4.1617  -4.1613  -4.1612  -4.1592
    -4.1592  -4.1582  -4.1581  -4.1569  -4.1568  -4.1550  -4.1550  -4.1533
    -4.1530  -4.1504  -4.1504  -4.1476  -4.1470  -4.1454  -4.1453  -4.1451
    -4.1439  -4.1437  -4.1436  -4.1414  -4.1413  -4.1411  -4.1411  -4.1393
    -4.1391  -4.1387  -4.1351  -4.1350  -4.1316  -4.1316  -4.1294  -4.1294
    -4.1254  -4.1252  -4.1251  -4.1219  -4.1201  -4.1181  -4.1181  -4.1143
    -4.1141  -4.1130  -4.1129  -4.1128  -4.1126  -4.1098  -4.1098  -4.1028
    -4.1027  -4.1021  -4.1020  -4.0988  -4.0987  -4.0960  -4.0960  -4.0899
    -4.0897  -4.0884  -4.0884  -4.0805  -4.0805  -4.0792  -4.0792  -4.0774
    -4.0773  -4.0741  -4.0739  -4.0734  -4.0723  -4.0723  -4.0714  -4.0701
    -4.0701  -4.0644  -4.0643  -4.0596  -4.0596  -4.0590  -4.0590  -4.0580
    -4.0557  -4.0526  -4.0525  -4.0523  -4.0523  -4.0449  -4.0424  -4.0338
    -4.0338  -4.0215  -4.0214  -4.0149  -4.0148  -4.0145  -3.9766  -3.9632
    -3.9632  -3.9541  -3.9540  -3.9466  -3.9466  -3.9128  -3.9128  -3.9113
    -3.9082  -3.9081  -3.9056  -3.9056  -3.8838  -3.8825  -3.8775  -3.8762
     0.9750   1.2174   1.7007   1.7008   1.9373   1.9375   2.1858   2.1860
     2.4038   2.4172   2.4174   2.6242   2.6751   2.8674   2.8674   3.0666
     3.0666   3.3071   3.3409   3.3411   3.3783   3.4318   3.7711   3.7713
     3.9982   3.9984   4.1692   4.1692   4.1865   4.3530   4.3530   4.3742
     4.3743   4.5136   4.5136   4.6834   4.7514   4.7515   4.8777   4.9045
     4.9046   5.0319   5.0319   5.0632   5.0633   5.2189   5.2190   5.3315
     5.3316   5.3561   5.6046   5.6046   5.7352   5.7352   5.7460   5.7461
     5.8794   5.8794   5.9158   5.9653   5.9654   6.0104   6.0105   6.0216
     6.1930   6.1931   6.3157   6.3323   6.3323   6.4914   6.5075   6.5075
     6.6188   6.6310   6.6311   6.6613   6.6614   6.6961   6.6961   6.7480
     6.7531   6.7628   6.7751   6.7800   6.7830   6.7830   6.7909   6.7909
     6.7934   6.7936   6.8004   6.8005   6.8055   6.8055   6.8146   6.8293
     6.8409   6.8410   6.8460   6.8588   6.8588   6.8595   6.8597   6.8660
     6.9011   6.9014   6.9014   6.9046   6.9047   6.9108   6.9109   6.9138
     6.9138   6.9241   6.9254   6.9477   6.9478   6.9493   6.9495   6.9638
     6.9678   6.9739   6.9740   6.9851   6.9913   6.9913   7.0478   7.0479
     7.0493   7.0493   7.0520   7.0625   7.0721   7.0721   7.0786   7.0787
     7.0846   7.0846   7.0978   7.0978   7.1061   7.1061   7.1198   7.1199
     7.1240   7.1240   7.1281   7.1281   7.1292   7.1293   7.1295   7.1297
     7.1366   7.1438   7.1438   7.1480   7.1510   7.1567   7.1603   7.1620
     7.1621   7.1682   7.1682   7.1751   7.1752   7.1787   7.1802   7.1803
     7.1809   7.1809   7.1857   7.1889   7.1973   7.1973   7.1988   7.1988
     7.1998   7.1998   7.1998   7.2016   7.2018   7.2023   7.2026   7.2031
     7.2032   7.2037   7.2038   7.2041   7.2043   7.2062   7.2064   7.2066
     7.2251   7.2419   7.2419   7.2541   7.2541   7.2851   7.2852   7.2931
     7.3152   7.3152   7.3334   7.3334   7.3529   7.3661   7.3661   7.3785
     7.3786   7.4327   7.4327   7.5423   7.5423   7.5448   7.5545   7.5871
     7.5871   7.6060   7.6060   7.6657   7.6657   7.8354   7.8355   7.8723
     7.8723   7.9401   7.9402   8.1572   8.2940   8.2940   8.3753   8.3753
     8.3798   8.3799   8.4552   8.5449   8.5449   8.6130   8.6130   8.6231
     8.6386   8.6387   8.7743   8.7744   8.7788   8.7943   8.7943   8.8275
     9.0108   9.0108   9.0818   9.0818   9.1773   9.1775   9.2004   9.4078
     9.4079   9.5106   9.6253   9.6353   9.6354   9.7635   9.7636   9.7858
     9.8804   9.9395   9.9396   9.9611   9.9730   9.9730  10.2067  10.2067

          k = 0.3750-0.3750 0.1250 (111665 PWs)   bands (ev):

    -4.5150  -4.5058  -4.5052  -4.4897  -4.4831  -4.4826  -4.4821  -4.4769
    -4.4767  -4.4748  -4.4674  -4.4523  -4.4499  -4.4498  -4.4442  -4.4436
    -4.4425  -4.4421  -4.4410  -4.4405  -4.4321  -4.4316  -4.4164  -4.4163
    -4.4163  -4.4157  -4.4094  -4.4092  -4.4072  -4.4040  -4.3942  -4.3876
    -4.3871  -4.3870  -4.3856  -4.3855  -4.3850  -4.3808  -4.3807  -4.3802
    -4.3800  -4.3793  -4.3792  -4.3770  -4.3766  -4.3754  -4.3748  -4.3735
    -4.3719  -4.3686  -4.3655  -4.3608  -4.3585  -4.3583  -4.3574  -4.3570
    -4.3567  -4.3565  -4.3544  -4.3507  -4.3502  -4.3497  -4.3495  -4.3453
    -4.3445  -4.3442  -4.3438  -4.3427  -4.3411  -4.3405  -4.3353  -4.3352
    -4.3318  -4.3317  -4.3316  -4.3302  -4.3295  -4.3293  -4.3284  -4.3279
    -4.3278  -4.3277  -4.3214  -4.3201  -4.3198  -4.3093  -4.3091  -4.3091
    -4.3091  -4.3058  -4.3056  -4.3028  -4.2994  -4.2993  -4.2975  -4.2943
    -4.2939  -4.2926  -4.2925  -4.2897  -4.2896  -4.2789  -4.2757  -4.2756
    -4.2715  -4.2713  -4.2713  -4.2712  -4.2705  -4.2694  -4.2693  -4.2603
    -4.2602  -4.2594  -4.2593  -4.2587  -4.2560  -4.2552  -4.2544  -4.2543
    -4.2523  -4.2495  -4.2494  -4.2492  -4.2491  -4.2439  -4.2436  -4.2425
    -4.2394  -4.2391  -4.2391  -4.2385  -4.2383  -4.2367  -4.2366  -4.2352
    -4.2351  -4.2349  -4.2321  -4.2320  -4.2289  -4.2284  -4.2250  -4.2245
    -4.2196  -4.2190  -4.2190  -4.2154  -4.2154  -4.2128  -4.2125  -4.2118
    -4.2089  -4.2088  -4.2088  -4.2088  -4.2080  -4.2079  -4.2051  -4.2050
    -4.2037  -4.2037  -4.2015  -4.2014  -4.2000  -4.2000  -4.1986  -4.1986
    -4.1966  -4.1965  -4.1965  -4.1930  -4.1930  -4.1886  -4.1885  -4.1868
    -4.1866  -4.1860  -4.1858  -4.1851  -4.1850  -4.1850  -4.1845  -4.1833
    -4.1830  -4.1827  -4.1826  -4.1822  -4.1790  -4.1789  -4.1780  -4.1775
    -4.1775  -4.1774  -4.1772  -4.1749  -4.1748  -4.1707  -4.1702  -4.1694
    -4.1692  -4.1685  -4.1669  -4.1667  -4.1646  -4.1645  -4.1606  -4.1591
    -4.1591  -4.1587  -4.1583  -4.1582  -4.1581  -4.1579  -4.1578  -4.1548
    -4.1539  -4.1537  -4.1537  -4.1537  -4.1535  -4.1534  -4.1533  -4.1529
    -4.1528  -4.1492  -4.1478  -4.1473  -4.1472  -4.1337  -4.1336  -4.1322
    -4.1321  -4.1296  -4.1266  -4.1261  -4.1258  -4.1253  -4.1234  -4.1227
    -4.1205  -4.1161  -4.1161  -4.1141  -4.1140  -4.1133  -4.1125  -4.1051
    -4.1026  -4.1026  -4.1023  -4.1022  -4.1020  -4.1019  -4.0999  -4.0995
    -4.0952  -4.0950  -4.0946  -4.0927  -4.0925  -4.0916  -4.0910  -4.0906
    -4.0900  -4.0886  -4.0885  -4.0876  -4.0853  -4.0837  -4.0832  -4.0822
    -4.0814  -4.0763  -4.0761  -4.0738  -4.0737  -4.0705  -4.0697  -4.0691
    -4.0684  -4.0665  -4.0664  -4.0634  -4.0560  -4.0559  -4.0536  -4.0535
    -4.0496  -4.0494  -4.0438  -4.0436  -4.0411  -4.0334  -4.0302  -4.0237
    -3.9913  -3.9907  -3.9877  -3.9872  -3.9834  -3.9828  -3.9779  -3.9774
    -3.9618  -3.9613  -3.9587  -3.9585  -3.9408  -3.9359  -3.9336  -3.9315
    -3.9290  -3.9119  -3.9118  -3.9105  -3.9100  -3.9026  -3.9020  -3.8947
     1.0954   1.3367   1.3374   1.5769   1.8181   2.0524   2.0531   2.2826
     2.3003   2.5282   2.5288   2.7483   2.7868   2.7874   3.0098   3.0102
     3.4296   3.4302   3.4836   3.4839   3.5577   3.5579   3.6922   3.6928
     3.8006   3.8013   4.0384   4.0387   4.2590   4.2666   4.2804   4.2806
     4.4268   4.4274   4.4497   4.4503   4.6165   4.6167   4.6705   4.7724
     4.7730   4.8871   4.8876   4.9646   5.3000   5.3139   5.4195   5.4201
     5.4258   5.4260   5.5577   5.5579   5.7027   5.7029   5.7333   5.7335
     5.7872   5.8479   5.8510   5.8515   6.0073   6.0523   6.0530   6.1856
     6.2674   6.3725   6.3730   6.3822   6.3824   6.4996   6.4998   6.5224
     6.6779   6.6780   6.7196   6.7198   6.7579   6.7749   6.7750   6.7758
     6.7758   6.7763   6.7763   6.7774   6.7838   6.8076   6.8078   6.8181
     6.8187   6.8251   6.8251   6.8289   6.8293   6.8356   6.8359   6.8415
     6.8510   6.8533   6.8534   6.8624   6.8643   6.8704   6.8711   6.8792
     6.8895   6.8908   6.8910   6.8968   6.9188   6.9192   6.9268   6.9273
     6.9366   6.9367   6.9442   6.9445   6.9589   6.9594   6.9714   6.9717
     6.9729   6.9732   6.9734   6.9915   6.9916   7.0273   7.0275   7.0402
     7.0403   7.0480   7.0480   7.0514   7.0521   7.0543   7.0545   7.0591
     7.0728   7.0729   7.0730   7.0734   7.0881   7.0889   7.0896   7.0902
     7.0955   7.1044   7.1078   7.1229   7.1230   7.1249   7.1329   7.1333
     7.1370   7.1482   7.1487   7.1521   7.1587   7.1608   7.1612   7.1648
     7.1650   7.1680   7.1700   7.1703   7.1711   7.1805   7.1810   7.1811
     7.1812   7.1835   7.1911   7.1913   7.1956   7.1957   7.1971   7.1980
     7.1983   7.1987   7.1989   7.1992   7.1995   7.2002   7.2003   7.2004
     7.2008   7.2014   7.2020   7.2030   7.2035   7.2042   7.2043   7.2047
     7.2049   7.2122   7.2122   7.2426   7.2426   7.2488   7.2492   7.2627
     7.2628   7.2691   7.2693   7.3160   7.3262   7.3266   7.3402   7.4267
     7.4270   7.5345   7.5508   7.5509   7.5914   7.5918   7.6009   7.6014
     7.6075   7.6924   7.7695   7.7701   7.8336   7.8338   7.8769   7.8956
     7.8963   7.9413   7.9415   8.0471   8.0473   8.1107   8.1111   8.2457
     8.2825   8.2826   8.4213   8.4219   8.5044   8.5045   8.6352   8.6356
     8.7207   8.7566   8.7568   8.9692   8.9722   8.9727   9.0061   9.0061
     9.1711   9.1712   9.1874   9.1878   9.2308   9.2310   9.2595   9.2602
     9.4130   9.4136   9.5975   9.5996   9.6003   9.6131   9.7837   9.7843
     9.7915   9.8165   9.9618  10.0452  10.0458  10.0477  10.1163  10.1164

     highest occupied level (ev):    10.4444

!    total energy              =  -12903.96945492 Ry
     estimated scf accuracy    <       0.00000010 Ry

     The total energy is the sum of the following terms:
     one-electron contribution =   -3996.75402434 Ry
     hartree contribution      =    3221.79801961 Ry
     xc contribution           =   -4386.34508182 Ry
     ewald contribution        =   -7742.66836837 Ry

     convergence has been achieved in  24 iterations

     Forces acting on atoms (cartesian axes, Ry/au):

     atom    1 type  1   force =    -0.00161457    0.00000000    0.00000000
     atom    2 type  1   force =    -0.00004800    0.00000000    0.00000000
     atom    3 type  1   force =    -0.00000157    0.00000000    0.00000000
     atom    4 type  1   force =     0.00000789    0.00000000    0.00000000
     atom    5 type  1   force =    -0.00000157    0.00000000    0.00000000
     atom    6 type  1   force =     0.00000789    0.00000000    0.00000000
     atom    7 type  1   force =     0.00002750    0.00000000    0.00000000
     atom    8 type  1   force =    -0.00002365    0.00000000    0.00000000
     atom    9 type  1   force =    -0.00002191    0.00000000    0.00006738
     atom   10 type  1   force =     0.00006436   -0.00000000    0.00001403
     atom   11 type  1   force =     0.00003689    0.00000000    0.00001005
     atom   12 type  1   force =    -0.00004666    0.00000000    0.00001092
     atom   13 type  1   force =    -0.00002191    0.00000000   -0.00006738
     atom   14 type  1   force =     0.00006436    0.00000000   -0.00001403
     atom   15 type  1   force =     0.00003689    0.00000000   -0.00001005
     atom   16 type  1   force =    -0.00004666    0.00000000   -0.00001092
     atom   17 type  1   force =     0.00002159   -0.00002021   -0.00002021
     atom   18 type  1   force =    -0.00001583    0.00006676    0.00006676
     atom   19 type  1   force =     0.00002159    0.00002021   -0.00002021
     atom   20 type  1   force =    -0.00001583   -0.00006676    0.00006676
     atom   21 type  1   force =     0.00002159   -0.00002021    0.00002021
     atom   22 type  1   force =    -0.00001583    0.00006676   -0.00006676
     atom   23 type  1   force =     0.00002159    0.00002021    0.00002021
     atom   24 type  1   force =    -0.00001583   -0.00006676   -0.00006676
     atom   25 type  1   force =    -0.00002191    0.00006738    0.00000000
     atom   26 type  1   force =     0.00006436    0.00001403    0.00000000
     atom   27 type  1   force =    -0.00002191   -0.00006738    0.00000000
     atom   28 type  1   force =     0.00006436   -0.00001403   -0.00000000
     atom   29 type  1   force =     0.00003689    0.00001005    0.00000000
     atom   30 type  1   force =    -0.00004666    0.00001092    0.00000000
     atom   31 type  1   force =     0.00003689   -0.00001005    0.00000000
     atom   32 type  1   force =    -0.00004666   -0.00001092    0.00000000
     atom   33 type  2   force =    -0.00007087    0.00006930    0.00006930
     atom   34 type  2   force =     0.00025281   -0.00025195   -0.00025195
     atom   35 type  2   force =    -0.00000885    0.00001274   -0.00000543
     atom   36 type  2   force =    -0.00000661   -0.00003012    0.00003253
     atom   37 type  2   force =    -0.00000885   -0.00000543    0.00001274
     atom   38 type  2   force =    -0.00000661    0.00003253   -0.00003012
     atom   39 type  2   force =     0.00006453   -0.00007183   -0.00007183
     atom   40 type  2   force =    -0.00004726    0.00005028    0.00005028
     atom   41 type  2   force =     0.00001919    0.00000465   -0.00001124
     atom   42 type  2   force =     0.00001453    0.00002699    0.00000700
     atom   43 type  2   force =     0.00003554    0.00003597   -0.00003597
     atom   44 type  2   force =    -0.00005560   -0.00005457    0.00005457
     atom   45 type  2   force =     0.00015180    0.00017301   -0.00017301
     atom   46 type  2   force =     0.00000562    0.00006155   -0.00006155
     atom   47 type  2   force =     0.00001919    0.00001124   -0.00000465
     atom   48 type  2   force =     0.00001453   -0.00000700   -0.00002699
     atom   49 type  2   force =     0.00006453    0.00007183    0.00007183
     atom   50 type  2   force =    -0.00004726   -0.00005028   -0.00005028
     atom   51 type  2   force =    -0.00000885    0.00000543   -0.00001274
     atom   52 type  2   force =    -0.00000661   -0.00003253    0.00003012
     atom   53 type  2   force =    -0.00000885   -0.00001274    0.00000543
     atom   54 type  2   force =    -0.00000661    0.00003012   -0.00003253
     atom   55 type  2   force =    -0.00007087   -0.00006930   -0.00006930
     atom   56 type  2   force =     0.00025281    0.00025195    0.00025195
     atom   57 type  2   force =     0.00001919   -0.00001124    0.00000465
     atom   58 type  2   force =     0.00001453    0.00000700    0.00002699
     atom   59 type  2   force =     0.00015180   -0.00017301    0.00017301
     atom   60 type  2   force =     0.00000562   -0.00006155    0.00006155
     atom   61 type  2   force =     0.00003554   -0.00003597    0.00003597
     atom   62 type  2   force =    -0.00005560    0.00005457   -0.00005457
     atom   63 type  2   force =     0.00001919   -0.00000465    0.00001124
     atom   64 type  2   force =     0.00001453   -0.00002699   -0.00000700
     atom   65 type  2   force =     0.00003554   -0.00003597   -0.00003597
     atom   66 type  2   force =    -0.00005560    0.00005457    0.00005457
     atom   67 type  2   force =     0.00001919   -0.00000465   -0.00001124
     atom   68 type  2   force =     0.00001453   -0.00002699    0.00000700
     atom   69 type  2   force =     0.00001919   -0.00001124   -0.00000465
     atom   70 type  2   force =     0.00001453    0.00000700   -0.00002699
     atom   71 type  2   force =     0.00015180   -0.00017301   -0.00017301
     atom   72 type  2   force =     0.00000562   -0.00006155   -0.00006155
     atom   73 type  2   force =    -0.00000885   -0.00001274   -0.00000543
     atom   74 type  2   force =    -0.00000661    0.00003012    0.00003253
     atom   75 type  2   force =    -0.00007087   -0.00006930    0.00006930
     atom   76 type  2   force =     0.00025281    0.00025195   -0.00025195
     atom   77 type  2   force =     0.00006453    0.00007183   -0.00007183
     atom   78 type  2   force =    -0.00004726   -0.00005028    0.00005028
     atom   79 type  2   force =    -0.00000885    0.00000543    0.00001274
     atom   80 type  2   force =    -0.00000661   -0.00003253   -0.00003012
     atom   81 type  2   force =     0.00015180    0.00017301    0.00017301
     atom   82 type  2   force =     0.00000562    0.00006155    0.00006155
     atom   83 type  2   force =     0.00001919    0.00001124    0.00000465
     atom   84 type  2   force =     0.00001453   -0.00000700    0.00002699
     atom   85 type  2   force =     0.00001919    0.00000465    0.00001124
     atom   86 type  2   force =     0.00001453    0.00002699   -0.00000700
     atom   87 type  2   force =     0.00003554    0.00003597    0.00003597
     atom   88 type  2   force =    -0.00005560   -0.00005457   -0.00005457
     atom   89 type  2   force =    -0.00000885   -0.00000543   -0.00001274
     atom   90 type  2   force =    -0.00000661    0.00003253    0.00003012
     atom   91 type  2   force =     0.00006453   -0.00007183    0.00007183
     atom   92 type  2   force =    -0.00004726    0.00005028   -0.00005028
     atom   93 type  2   force =    -0.00007087    0.00006930   -0.00006930
     atom   94 type  2   force =     0.00025281   -0.00025195    0.00025195
     atom   95 type  2   force =    -0.00000885    0.00001274    0.00000543
     atom   96 type  2   force =    -0.00000661   -0.00003012   -0.00003253

     Total force =     0.002014     Total SCF correction =     0.001432
     SCF correction compared to forces is large: reduce conv_thr to get better values


     Computing stress (Cartesian axis) and pressure

          total   stress  (Ry/bohr**3)                   (kbar)     P=       -5.99
  -0.00004271   0.00000000   0.00000000           -6.28        0.00        0.00
   0.00000000  -0.00003976   0.00000000            0.00       -5.85        0.00
   0.00000000   0.00000000  -0.00003976            0.00        0.00       -5.85


     init_run     :   1615.88s CPU   1682.85s WALL (       1 calls)
     electrons    :  94323.09s CPU  98916.86s WALL (       1 calls)
     forces       :    939.87s CPU    972.78s WALL (       1 calls)
     stress       :   6092.96s CPU   6235.89s WALL (       1 calls)

     Called by init_run:
     wfcinit      :   1605.78s CPU   1668.11s WALL (       1 calls)
     potinit      :      1.44s CPU      1.63s WALL (       1 calls)
     hinit0       :      1.95s CPU      2.08s WALL (       1 calls)

     Called by electrons:
     c_bands      :  86792.63s CPU  91005.03s WALL (      25 calls)
     sum_band     :   7355.00s CPU   7655.70s WALL (      25 calls)
     v_of_rho     :     29.31s CPU     29.77s WALL (      25 calls)
     newd         :    146.80s CPU    229.89s WALL (      25 calls)
     mix_rho      :      6.22s CPU      7.33s WALL (      25 calls)

     Called by c_bands:
     init_us_2    :    186.79s CPU    269.97s WALL (     318 calls)
     init_us_2:cp :    186.79s CPU    269.97s WALL (     318 calls)
     cegterg      :  85705.66s CPU  89801.50s WALL (     150 calls)

     Called by *egterg:
     cdiaghg      :   1887.64s CPU   1899.46s WALL (    1403 calls)
     h_psi        :  36852.78s CPU  38271.41s WALL (    1415 calls)
     s_psi        :  13674.10s CPU  14107.00s WALL (    1415 calls)
     g_psi        :     66.38s CPU     76.44s WALL (    1259 calls)

     Called by h_psi:
     h_psi:calbec :  13486.05s CPU  14135.02s WALL (    1415 calls)
     vloc_psi     :   9603.03s CPU   9730.43s WALL (    1415 calls)
     add_vuspsi   :  13694.50s CPU  14192.51s WALL (    1415 calls)

     General routines
     calbec       :  19521.99s CPU  20310.24s WALL (    1595 calls)
     fft          :      5.44s CPU      5.57s WALL (     301 calls)
     ffts         :      0.49s CPU      0.50s WALL (      25 calls)
     fftw         :   9557.44s CPU   9622.37s WALL (  548816 calls)

     Parallel routines

     PWSCF        :   1d 4h36m CPU   1d 5h56m WALL


   This run was terminated on:  14:26:14  18May2023            

=------------------------------------------------------------------------------=
   JOB DONE.
=------------------------------------------------------------------------------=
