
     Program PWSCF v.7.1 starts on 17May2023 at 12: 4:10 

     This program is part of the open-source Quantum ESPRESSO suite
     for quantum simulation of materials; please cite
         "P. Giannozzi et al., J. Phys.:Condens. Matter 21 395502 (2009);
         "P. Giannozzi et al., J. Phys.:Condens. Matter 29 465901 (2017);
         "P. Giannozzi et al., J. Chem. Phys. 152 154105 (2020);
          URL http://www.quantum-espresso.org", 
     in publications or presentations arising from this work. More details at
     http://www.quantum-espresso.org/quote

     Parallel version (MPI), running on     1 processors

     MPI processes distributed on     1 nodes
     9778 MiB available memory on the printing compute node when the environment starts

     Reading input from CuC1-002.in

     Current dimensions of program PWSCF are:
     Max number of different atomic species (ntypx) = 10
     Max number of k-points (npk) =  40000
     Max angular momentum in pseudopotentials (lmaxx) =  4
     file Cu.pbe-dn-rrkjus_psl.1.0.0.UPF: wavefunction(s)  3D renormalized
     file In.pbe-dn-rrkjus_psl.1.0.0.UPF: wavefunction(s)  5S 4D renormalized
     Message from routine setup:
     using ibrav=0 with symmetry is DISCOURAGED, use correct ibrav instead

     Subspace diagonalization in iterative solution of the eigenvalue problem:
     a serial algorithm will be used


     G-vector sticks info
     --------------------
     sticks:   dense  smooth     PW     G-vecs:    dense   smooth      PW
     Sum       11213   11213   2933               893835   893835  119177

     Using Slab Decomposition



     bravais-lattice index     =            0
     lattice parameter (alat)  =      24.2313  a.u.
     unit-cell volume          =   14227.6247 (a.u.)^3
     number of atoms/cell      =           96
     number of atomic types    =            2
     number of electrons       =      1184.00
     number of Kohn-Sham states=          592
     kinetic-energy cutoff     =      60.0000  Ry
     charge density cutoff     =     240.0000  Ry
     scf convergence threshold =      1.0E-07
     mixing beta               =       0.7000
     number of iterations used =            8  plain     mixing
     Exchange-correlation= PBE
                           (   1   4   3   4   0   0   0)

     celldm(1)=  24.231342  celldm(2)=   0.000000  celldm(3)=   0.000000
     celldm(4)=   0.000000  celldm(5)=   0.000000  celldm(6)=   0.000000

     crystal axes: (cart. coord. in units of alat)
               a(1) = (   1.000000   0.000000   0.000000 )  
               a(2) = (   0.000000   1.000000   0.000000 )  
               a(3) = (   0.000000   0.000000   1.000000 )  

     reciprocal axes: (cart. coord. in units 2 pi/alat)
               b(1) = (  1.000000  0.000000  0.000000 )  
               b(2) = (  0.000000  1.000000  0.000000 )  
               b(3) = (  0.000000  0.000000  1.000000 )  


     PseudoPot. # 1 for Cu read from file:
     ./pseudos/Cu.pbe-dn-rrkjus_psl.1.0.0.UPF
     MD5 check sum: ba3d6c84e19846e79d48cdc68ff7152b
     Pseudo is Ultrasoft + core correction, Zval = 11.0
     Generated using &quot;atomic&quot; code by A. Dal Corso  v.6.3
     Using radial grid of 1199 points,  6 beta functions with: 
                l(1) =   0
                l(2) =   0
                l(3) =   1
                l(4) =   1
                l(5) =   2
                l(6) =   2
     Q(r) pseudized with 0 coefficients 


     PseudoPot. # 2 for In read from file:
     ./pseudos/In.pbe-dn-rrkjus_psl.1.0.0.UPF
     MD5 check sum: 7267d4f9f57825930b619e54710f1f3b
     Pseudo is Ultrasoft + core correction, Zval = 13.0
     Generated using &quot;atomic&quot; code by A. Dal Corso  v.6.3
     Using radial grid of 1241 points,  6 beta functions with: 
                l(1) =   0
                l(2) =   0
                l(3) =   1
                l(4) =   1
                l(5) =   2
                l(6) =   2
     Q(r) pseudized with 0 coefficients 


     atomic species   valence    mass     pseudopotential
        Cu            11.00    63.54600     Cu( 1.00)
        In            13.00   114.81800     In( 1.00)

      4 Sym. Ops. (no inversion) found ( 2 have fractional translation)



   Cartesian axes

     site n.     atom                  positions (alat units)
         1           Cu  tau(   1) = (   0.0000000   0.0000000   0.0000000  )
         2           Cu  tau(   2) = (   0.5000000   0.0000000   0.0000000  )
         3           Cu  tau(   3) = (   0.0000000   0.5000000   0.0000000  )
         4           Cu  tau(   4) = (   0.5000000   0.5000000   0.0000000  )
         5           Cu  tau(   5) = (   0.0000000   0.0000000   0.5000000  )
         6           Cu  tau(   6) = (   0.5000000   0.0000000   0.5000000  )
         7           Cu  tau(   7) = (   0.0000000   0.5000000   0.5000000  )
         8           Cu  tau(   8) = (   0.5000000   0.5000000   0.5000000  )
         9           Cu  tau(   9) = (   0.2500000   0.0000000   0.2500000  )
        10           Cu  tau(  10) = (   0.7500000   0.0000000   0.2500000  )
        11           Cu  tau(  11) = (   0.2500000   0.5000000   0.2500000  )
        12           Cu  tau(  12) = (   0.7500000   0.5000000   0.2500000  )
        13           Cu  tau(  13) = (   0.2500000   0.0000000   0.7500000  )
        14           Cu  tau(  14) = (   0.7500000   0.0000000   0.7500000  )
        15           Cu  tau(  15) = (   0.2500000   0.5000000   0.7500000  )
        16           Cu  tau(  16) = (   0.7500000   0.5000000   0.7500000  )
        17           Cu  tau(  17) = (   0.0000000   0.2500000   0.2500000  )
        18           Cu  tau(  18) = (   0.5000000   0.2500000   0.2500000  )
        19           Cu  tau(  19) = (   0.0000000   0.7500000   0.2500000  )
        20           Cu  tau(  20) = (   0.5000000   0.7500000   0.2500000  )
        21           Cu  tau(  21) = (   0.0000000   0.2500000   0.7500000  )
        22           Cu  tau(  22) = (   0.5000000   0.2500000   0.7500000  )
        23           Cu  tau(  23) = (   0.0000000   0.7500000   0.7500000  )
        24           Cu  tau(  24) = (   0.5000000   0.7500000   0.7500000  )
        25           Cu  tau(  25) = (   0.2500000   0.2500000   0.0000000  )
        26           Cu  tau(  26) = (   0.7500000   0.2500000   0.0000000  )
        27           Cu  tau(  27) = (   0.2500000   0.7500000   0.0000000  )
        28           Cu  tau(  28) = (   0.7500000   0.7500000   0.0000000  )
        29           Cu  tau(  29) = (   0.2500000   0.2500000   0.5000000  )
        30           Cu  tau(  30) = (   0.7500000   0.2500000   0.5000000  )
        31           Cu  tau(  31) = (   0.2500000   0.7500000   0.5000000  )
        32           Cu  tau(  32) = (   0.7500000   0.7500000   0.5000000  )
        33           In  tau(  33) = (   0.3758254   0.1250000   0.1250000  )
        34           In  tau(  34) = (   0.8750000   0.1250000   0.1250000  )
        35           In  tau(  35) = (   0.3750000   0.6250000   0.1250000  )
        36           In  tau(  36) = (   0.8750000   0.6250000   0.1250000  )
        37           In  tau(  37) = (   0.3750000   0.1250000   0.6250000  )
        38           In  tau(  38) = (   0.8750000   0.1250000   0.6250000  )
        39           In  tau(  39) = (   0.3750000   0.6250000   0.6250000  )
        40           In  tau(  40) = (   0.8750000   0.6250000   0.6250000  )
        41           In  tau(  41) = (   0.1250000   0.1250000   0.3750000  )
        42           In  tau(  42) = (   0.6250000   0.1250000   0.3750000  )
        43           In  tau(  43) = (   0.1250000   0.6250000   0.3750000  )
        44           In  tau(  44) = (   0.6250000   0.6250000   0.3750000  )
        45           In  tau(  45) = (   0.1250000   0.1250000   0.8750000  )
        46           In  tau(  46) = (   0.6250000   0.1250000   0.8750000  )
        47           In  tau(  47) = (   0.1250000   0.6250000   0.8750000  )
        48           In  tau(  48) = (   0.6250000   0.6250000   0.8750000  )
        49           In  tau(  49) = (   0.3750000   0.3750000   0.3750000  )
        50           In  tau(  50) = (   0.8750000   0.3750000   0.3750000  )
        51           In  tau(  51) = (   0.3750000   0.8750000   0.3750000  )
        52           In  tau(  52) = (   0.8750000   0.8750000   0.3750000  )
        53           In  tau(  53) = (   0.3750000   0.3750000   0.8750000  )
        54           In  tau(  54) = (   0.8750000   0.3750000   0.8750000  )
        55           In  tau(  55) = (   0.3750000   0.8750000   0.8750000  )
        56           In  tau(  56) = (   0.8750000   0.8750000   0.8750000  )
        57           In  tau(  57) = (   0.1250000   0.3750000   0.1250000  )
        58           In  tau(  58) = (   0.6250000   0.3750000   0.1250000  )
        59           In  tau(  59) = (   0.1250000   0.8750000   0.1250000  )
        60           In  tau(  60) = (   0.6250000   0.8750000   0.1250000  )
        61           In  tau(  61) = (   0.1250000   0.3750000   0.6250000  )
        62           In  tau(  62) = (   0.6250000   0.3750000   0.6250000  )
        63           In  tau(  63) = (   0.1250000   0.8750000   0.6250000  )
        64           In  tau(  64) = (   0.6250000   0.8750000   0.6250000  )
        65           In  tau(  65) = (   0.1250000   0.3750000   0.3750000  )
        66           In  tau(  66) = (   0.6250000   0.3750000   0.3750000  )
        67           In  tau(  67) = (   0.1250000   0.8750000   0.3750000  )
        68           In  tau(  68) = (   0.6250000   0.8750000   0.3750000  )
        69           In  tau(  69) = (   0.1250000   0.3750000   0.8750000  )
        70           In  tau(  70) = (   0.6250000   0.3750000   0.8750000  )
        71           In  tau(  71) = (   0.1250000   0.8750000   0.8750000  )
        72           In  tau(  72) = (   0.6250000   0.8750000   0.8750000  )
        73           In  tau(  73) = (   0.3750000   0.3750000   0.1250000  )
        74           In  tau(  74) = (   0.8750000   0.3750000   0.1250000  )
        75           In  tau(  75) = (   0.3750000   0.8750000   0.1250000  )
        76           In  tau(  76) = (   0.8750000   0.8750000   0.1250000  )
        77           In  tau(  77) = (   0.3750000   0.3750000   0.6250000  )
        78           In  tau(  78) = (   0.8750000   0.3750000   0.6250000  )
        79           In  tau(  79) = (   0.3750000   0.8750000   0.6250000  )
        80           In  tau(  80) = (   0.8750000   0.8750000   0.6250000  )
        81           In  tau(  81) = (   0.1250000   0.1250000   0.1250000  )
        82           In  tau(  82) = (   0.6250000   0.1250000   0.1250000  )
        83           In  tau(  83) = (   0.1250000   0.6250000   0.1250000  )
        84           In  tau(  84) = (   0.6250000   0.6250000   0.1250000  )
        85           In  tau(  85) = (   0.1250000   0.1250000   0.6250000  )
        86           In  tau(  86) = (   0.6250000   0.1250000   0.6250000  )
        87           In  tau(  87) = (   0.1250000   0.6250000   0.6250000  )
        88           In  tau(  88) = (   0.6250000   0.6250000   0.6250000  )
        89           In  tau(  89) = (   0.3750000   0.1250000   0.3750000  )
        90           In  tau(  90) = (   0.8750000   0.1250000   0.3750000  )
        91           In  tau(  91) = (   0.3750000   0.6250000   0.3750000  )
        92           In  tau(  92) = (   0.8750000   0.6250000   0.3750000  )
        93           In  tau(  93) = (   0.3750000   0.1250000   0.8750000  )
        94           In  tau(  94) = (   0.8750000   0.1250000   0.8750000  )
        95           In  tau(  95) = (   0.3750000   0.6250000   0.8750000  )
        96           In  tau(  96) = (   0.8750000   0.6250000   0.8750000  )

     number of k points=    12
                       cart. coord. in units 2pi/alat
        k(    1) = (   0.1250000   0.1250000   0.1250000), wk =   0.1250000
        k(    2) = (   0.1250000   0.1250000   0.3750000), wk =   0.2500000
        k(    3) = (   0.1250000   0.3750000   0.3750000), wk =   0.1250000
        k(    4) = (   0.3750000   0.3750000   0.3750000), wk =   0.1250000
        k(    5) = (   0.1250000   0.1250000  -0.1250000), wk =   0.1250000
        k(    6) = (   0.1250000   0.1250000  -0.3750000), wk =   0.2500000
        k(    7) = (   0.3750000  -0.1250000   0.1250000), wk =   0.1250000
        k(    8) = (  -0.3750000  -0.1250000  -0.1250000), wk =   0.1250000
        k(    9) = (   0.3750000   0.1250000  -0.3750000), wk =   0.2500000
        k(   10) = (  -0.3750000  -0.1250000  -0.3750000), wk =   0.2500000
        k(   11) = (   0.1250000   0.3750000  -0.3750000), wk =   0.1250000
        k(   12) = (   0.3750000   0.3750000  -0.3750000), wk =   0.1250000

     Dense  grid:   893835 G-vectors     FFT dimensions: ( 120, 120, 120)

     Estimated max dynamical RAM per process >      22.18 GB

     Check: negative core charge=   -0.000001

     Initial potential from superposition of free atoms

     starting charge    1183.7547, renormalised to    1184.0000
     Starting wfcs are  864 randomized atomic wfcs

     total cpu time spent up to now is     3303.8 secs

     Self-consistent Calculation

     iteration #  1     ecut=    60.00 Ry     beta= 0.70
     Davidson diagonalization with overlap
     ethr =  1.00E-02,  avg # of iterations =  2.0

     Threshold (ethr) on eigenvalues was too large:
     Diagonalizing with lowered threshold

     Davidson diagonalization with overlap
     ethr =  8.17E-05,  avg # of iterations =  6.0

     total cpu time spent up to now is    20680.5 secs

     total energy              =  -12903.60269622 Ry
     estimated scf accuracy    <       1.40836461 Ry

     iteration #  2     ecut=    60.00 Ry     beta= 0.70
     Davidson diagonalization with overlap
     ethr =  1.19E-04,  avg # of iterations =  2.5

     total cpu time spent up to now is    30150.7 secs

     total energy              =  -12903.79949208 Ry
     estimated scf accuracy    <       0.43328183 Ry

     iteration #  3     ecut=    60.00 Ry     beta= 0.70
     Davidson diagonalization with overlap
     ethr =  3.66E-05,  avg # of iterations =  5.2

     total cpu time spent up to now is    40222.2 secs

     total energy              =  -12903.78663642 Ry
     estimated scf accuracy    <       1.09235562 Ry

     iteration #  4     ecut=    60.00 Ry     beta= 0.70
     Davidson diagonalization with overlap
     ethr =  3.66E-05,  avg # of iterations =  5.0

     total cpu time spent up to now is    48716.4 secs

     total energy              =  -12903.96657332 Ry
     estimated scf accuracy    <       0.01196354 Ry

     iteration #  5     ecut=    60.00 Ry     beta= 0.70
     Davidson diagonalization with overlap
     ethr =  1.01E-06,  avg # of iterations =  4.8

     total cpu time spent up to now is    56801.5 secs

     total energy              =  -12903.96846829 Ry
     estimated scf accuracy    <       0.00569522 Ry

     iteration #  6     ecut=    60.00 Ry     beta= 0.70
     Davidson diagonalization with overlap
     c_bands:  1 eigenvalues not converged
     c_bands:  1 eigenvalues not converged
     ethr =  4.81E-07,  avg # of iterations = 10.8

     total cpu time spent up to now is    65428.7 secs

     total energy              =  -12903.96833010 Ry
     estimated scf accuracy    <       0.01369005 Ry

     iteration #  7     ecut=    60.00 Ry     beta= 0.70
     Davidson diagonalization with overlap
     c_bands:  1 eigenvalues not converged
     ethr =  4.81E-07,  avg # of iterations = 11.7

     total cpu time spent up to now is    73193.3 secs

     total energy              =  -12903.96938776 Ry
     estimated scf accuracy    <       0.00024717 Ry

     iteration #  8     ecut=    60.00 Ry     beta= 0.70
     Davidson diagonalization with overlap
     c_bands:  1 eigenvalues not converged
     c_bands:  1 eigenvalues not converged
     ethr =  2.09E-08,  avg # of iterations =  9.9

     total cpu time spent up to now is    81857.0 secs

     total energy              =  -12903.96944275 Ry
     estimated scf accuracy    <       0.00026428 Ry

     iteration #  9     ecut=    60.00 Ry     beta= 0.70
     Davidson diagonalization with overlap
     c_bands:  1 eigenvalues not converged
     c_bands:  1 eigenvalues not converged
     ethr =  2.09E-08,  avg # of iterations =  5.8

     total cpu time spent up to now is    88443.6 secs

     total energy              =  -12903.96944273 Ry
     estimated scf accuracy    <       0.00011875 Ry

     iteration # 10     ecut=    60.00 Ry     beta= 0.70
     Davidson diagonalization with overlap
     c_bands:  1 eigenvalues not converged
     c_bands:  1 eigenvalues not converged
     ethr =  1.00E-08,  avg # of iterations = 11.1

     total cpu time spent up to now is    95858.6 secs

     total energy              =  -12903.96944906 Ry
     estimated scf accuracy    <       0.00003882 Ry

     iteration # 11     ecut=    60.00 Ry     beta= 0.70
     Davidson diagonalization with overlap
     c_bands:  1 eigenvalues not converged
     c_bands:  1 eigenvalues not converged
     ethr =  3.28E-09,  avg # of iterations = 11.3

     total cpu time spent up to now is   103500.6 secs

     total energy              =  -12903.96945227 Ry
     estimated scf accuracy    <       0.00000711 Ry

     iteration # 12     ecut=    60.00 Ry     beta= 0.70
     Davidson diagonalization with overlap
     c_bands:  1 eigenvalues not converged
     c_bands:  1 eigenvalues not converged
     ethr =  6.00E-10,  avg # of iterations = 11.3

     total cpu time spent up to now is   111923.8 secs

     total energy              =  -12903.96945500 Ry
     estimated scf accuracy    <       0.00007661 Ry

     iteration # 13     ecut=    60.00 Ry     beta= 0.70
     Davidson diagonalization with overlap
     c_bands:  1 eigenvalues not converged
     c_bands:  1 eigenvalues not converged
     ethr =  6.00E-10,  avg # of iterations =  9.4

     total cpu time spent up to now is   118540.4 secs

     total energy              =  -12903.96945664 Ry
     estimated scf accuracy    <       0.00004460 Ry

     iteration # 14     ecut=    60.00 Ry     beta= 0.70
     Davidson diagonalization with overlap
     c_bands:  1 eigenvalues not converged
     c_bands:  1 eigenvalues not converged
     ethr =  6.00E-10,  avg # of iterations =  5.0

     total cpu time spent up to now is   124402.8 secs

     total energy              =  -12903.96945415 Ry
     estimated scf accuracy    <       0.00003812 Ry

     iteration # 15     ecut=    60.00 Ry     beta= 0.70
     Davidson diagonalization with overlap
     c_bands:  1 eigenvalues not converged
     c_bands:  1 eigenvalues not converged
     ethr =  6.00E-10,  avg # of iterations = 11.3

     total cpu time spent up to now is   131417.3 secs

     total energy              =  -12903.96945325 Ry
     estimated scf accuracy    <       0.00001912 Ry

     iteration # 16     ecut=    60.00 Ry     beta= 0.70
     Davidson diagonalization with overlap
     c_bands:  1 eigenvalues not converged
     c_bands:  1 eigenvalues not converged
     ethr =  6.00E-10,  avg # of iterations = 11.0

     total cpu time spent up to now is   138987.6 secs

     total energy              =  -12903.96945285 Ry
     estimated scf accuracy    <       0.00002235 Ry

     iteration # 17     ecut=    60.00 Ry     beta= 0.70
     Davidson diagonalization with overlap
     c_bands:  1 eigenvalues not converged
     c_bands:  1 eigenvalues not converged
     ethr =  6.00E-10,  avg # of iterations = 11.6

     total cpu time spent up to now is   146375.5 secs

     total energy              =  -12903.96945430 Ry
     estimated scf accuracy    <       0.00000558 Ry

     iteration # 18     ecut=    60.00 Ry     beta= 0.70
     Davidson diagonalization with overlap
     c_bands:  1 eigenvalues not converged
     c_bands:  1 eigenvalues not converged
     ethr =  4.71E-10,  avg # of iterations =  5.8

     total cpu time spent up to now is   152442.0 secs

     total energy              =  -12903.96945563 Ry
     estimated scf accuracy    <       0.00000299 Ry

     iteration # 19     ecut=    60.00 Ry     beta= 0.70
     Davidson diagonalization with overlap
     c_bands:  1 eigenvalues not converged
     c_bands:  1 eigenvalues not converged
     ethr =  2.53E-10,  avg # of iterations =  5.6

     total cpu time spent up to now is   158738.9 secs

     total energy              =  -12903.96945542 Ry
     estimated scf accuracy    <       0.00000348 Ry

     iteration # 20     ecut=    60.00 Ry     beta= 0.70
     Davidson diagonalization with overlap
     c_bands:  1 eigenvalues not converged
     c_bands:  1 eigenvalues not converged
     ethr =  2.53E-10,  avg # of iterations = 11.4

     total cpu time spent up to now is   166476.9 secs

     total energy              =  -12903.96945534 Ry
     estimated scf accuracy    <       0.00001185 Ry

     iteration # 21     ecut=    60.00 Ry     beta= 0.70
     Davidson diagonalization with overlap
     c_bands:  1 eigenvalues not converged
     c_bands:  1 eigenvalues not converged
     ethr =  2.53E-10,  avg # of iterations = 10.6

     total cpu time spent up to now is   173967.1 secs

     total energy              =  -12903.96945741 Ry
     estimated scf accuracy    <       0.00000642 Ry

     iteration # 22     ecut=    60.00 Ry     beta= 0.70
     Davidson diagonalization with overlap
     c_bands:  1 eigenvalues not converged
     c_bands:  1 eigenvalues not converged
     ethr =  2.53E-10,  avg # of iterations =  4.2

     total cpu time spent up to now is   179123.0 secs

     total energy              =  -12903.96945808 Ry
     estimated scf accuracy    <       0.00000586 Ry

     iteration # 23     ecut=    60.00 Ry     beta= 0.70
     Davidson diagonalization with overlap
     c_bands:  1 eigenvalues not converged
     c_bands:  1 eigenvalues not converged
     ethr =  2.53E-10,  avg # of iterations =  5.1

     total cpu time spent up to now is   185193.6 secs

     total energy              =  -12903.96945732 Ry
     estimated scf accuracy    <       0.00000473 Ry

     iteration # 24     ecut=    60.00 Ry     beta= 0.70
     Davidson diagonalization with overlap
     c_bands:  1 eigenvalues not converged
     c_bands:  1 eigenvalues not converged
     ethr =  2.53E-10,  avg # of iterations = 10.9

     total cpu time spent up to now is   193035.9 secs

     total energy              =  -12903.96945750 Ry
     estimated scf accuracy    <       0.00000239 Ry

     iteration # 25     ecut=    60.00 Ry     beta= 0.70
     Davidson diagonalization with overlap
     c_bands:  1 eigenvalues not converged
     c_bands:  1 eigenvalues not converged
     ethr =  2.02E-10,  avg # of iterations =  9.7

     total cpu time spent up to now is   200458.0 secs

     total energy              =  -12903.96945767 Ry
     estimated scf accuracy    <       0.00000104 Ry

     iteration # 26     ecut=    60.00 Ry     beta= 0.70
     Davidson diagonalization with overlap
     c_bands:  1 eigenvalues not converged
     c_bands:  1 eigenvalues not converged
     ethr =  8.82E-11,  avg # of iterations = 11.0

     total cpu time spent up to now is   208212.4 secs

     total energy              =  -12903.96945771 Ry
     estimated scf accuracy    <       0.00000125 Ry

     iteration # 27     ecut=    60.00 Ry     beta= 0.70
     Davidson diagonalization with overlap
     c_bands:  1 eigenvalues not converged
     c_bands:  1 eigenvalues not converged
     ethr =  8.82E-11,  avg # of iterations = 11.0

     total cpu time spent up to now is   215010.5 secs

     total energy              =  -12903.96945776 Ry
     estimated scf accuracy    <       0.00000068 Ry

     iteration # 28     ecut=    60.00 Ry     beta= 0.70
     Davidson diagonalization with overlap
     c_bands:  1 eigenvalues not converged
     c_bands:  1 eigenvalues not converged
     ethr =  5.77E-11,  avg # of iterations = 10.8

     total cpu time spent up to now is   222175.8 secs

     total energy              =  -12903.96945777 Ry
     estimated scf accuracy    <       0.00000037 Ry

     iteration # 29     ecut=    60.00 Ry     beta= 0.70
     Davidson diagonalization with overlap
     c_bands:  1 eigenvalues not converged
     c_bands:  1 eigenvalues not converged
     ethr =  3.15E-11,  avg # of iterations = 11.5

     total cpu time spent up to now is   229958.0 secs

     total energy              =  -12903.96945784 Ry
     estimated scf accuracy    <       0.00000033 Ry

     iteration # 30     ecut=    60.00 Ry     beta= 0.70
     Davidson diagonalization with overlap
     c_bands:  1 eigenvalues not converged
     c_bands:  1 eigenvalues not converged
     ethr =  2.77E-11,  avg # of iterations = 11.2

     total cpu time spent up to now is   237995.9 secs

     total energy              =  -12903.96945794 Ry
     estimated scf accuracy    <       0.00000048 Ry

     iteration # 31     ecut=    60.00 Ry     beta= 0.70
     Davidson diagonalization with overlap
     c_bands:  1 eigenvalues not converged
     c_bands:  1 eigenvalues not converged
     ethr =  2.77E-11,  avg # of iterations = 10.9

     total cpu time spent up to now is   245856.0 secs

     total energy              =  -12903.96945802 Ry
     estimated scf accuracy    <       0.00000037 Ry

     iteration # 32     ecut=    60.00 Ry     beta= 0.70
     Davidson diagonalization with overlap
     c_bands:  1 eigenvalues not converged
     c_bands:  1 eigenvalues not converged
     ethr =  2.77E-11,  avg # of iterations =  7.9

     total cpu time spent up to now is   252486.9 secs

     End of self-consistent calculation

          k = 0.1250 0.1250 0.1250 (111629 PWs)   bands (ev):

    -4.5331  -4.5331  -4.5178  -4.5173  -4.5172  -4.5101  -4.5096  -4.5094
    -4.4938  -4.4938  -4.4938  -4.4442  -4.4439  -4.4438  -4.4371  -4.4371
    -4.4371  -4.4277  -4.4276  -4.4276  -4.4273  -4.4273  -4.4272  -4.4159
    -4.4158  -4.4158  -4.4058  -4.4058  -4.4058  -4.4054  -4.4053  -4.4050
    -4.4049  -4.4049  -4.4046  -4.4046  -4.4044  -4.4043  -4.3875  -4.3872
    -4.3871  -4.3840  -4.3827  -4.3826  -4.3752  -4.3751  -4.3748  -4.3745
    -4.3742  -4.3741  -4.3511  -4.3509  -4.3509  -4.3506  -4.3505  -4.3504
    -4.3353  -4.3352  -4.3349  -4.3345  -4.3343  -4.3343  -4.3340  -4.3340
    -4.3338  -4.3328  -4.3328  -4.3328  -4.3172  -4.3170  -4.3169  -4.3118
    -4.3115  -4.3112  -4.3070  -4.3067  -4.3064  -4.3064  -4.3062  -4.3061
    -4.3060  -4.3059  -4.3057  -4.2925  -4.2920  -4.2919  -4.2904  -4.2903
    -4.2901  -4.2899  -4.2898  -4.2896  -4.2859  -4.2858  -4.2808  -4.2808
    -4.2808  -4.2781  -4.2778  -4.2778  -4.2775  -4.2775  -4.2773  -4.2742
    -4.2739  -4.2737  -4.2709  -4.2697  -4.2697  -4.2696  -4.2679  -4.2677
    -4.2676  -4.2674  -4.2672  -4.2670  -4.2656  -4.2651  -4.2648  -4.2564
    -4.2563  -4.2561  -4.2426  -4.2424  -4.2424  -4.2423  -4.2422  -4.2379
    -4.2379  -4.2378  -4.2283  -4.2281  -4.2280  -4.2278  -4.2278  -4.2273
    -4.2222  -4.2220  -4.2219  -4.2219  -4.2219  -4.2218  -4.2206  -4.2205
    -4.2205  -4.2150  -4.2148  -4.2148  -4.2144  -4.2143  -4.2141  -4.2139
    -4.2138  -4.2137  -4.2127  -4.2127  -4.2127  -4.2034  -4.2032  -4.2032
    -4.2030  -4.2030  -4.2030  -4.2029  -4.2028  -4.2028  -4.1985  -4.1985
    -4.1984  -4.1977  -4.1976  -4.1976  -4.1947  -4.1947  -4.1947  -4.1936
    -4.1935  -4.1935  -4.1935  -4.1934  -4.1934  -4.1914  -4.1914  -4.1914
    -4.1913  -4.1913  -4.1913  -4.1879  -4.1878  -4.1877  -4.1871  -4.1871
    -4.1870  -4.1870  -4.1870  -4.1870  -4.1829  -4.1761  -4.1760  -4.1760
    -4.1758  -4.1756  -4.1730  -4.1730  -4.1729  -4.1682  -4.1682  -4.1681
    -4.1665  -4.1659  -4.1658  -4.1534  -4.1531  -4.1530  -4.1522  -4.1522
    -4.1522  -4.1483  -4.1483  -4.1455  -4.1450  -4.1448  -4.1433  -4.1431
    -4.1428  -4.1427  -4.1425  -4.1423  -4.1368  -4.1367  -4.1366  -4.1363
    -4.1362  -4.1360  -4.1354  -4.1350  -4.1348  -4.1331  -4.1329  -4.1328
    -4.1325  -4.1324  -4.1323  -4.1306  -4.1304  -4.1300  -4.1158  -4.1156
    -4.1154  -4.1151  -4.1150  -4.1148  -4.1090  -4.1087  -4.1085  -4.1078
    -4.1076  -4.1073  -4.1057  -4.1055  -4.1055  -4.1051  -4.1051  -4.1049
    -4.0978  -4.0977  -4.0977  -4.0974  -4.0972  -4.0970  -4.0846  -4.0845
    -4.0842  -4.0841  -4.0837  -4.0836  -4.0650  -4.0648  -4.0647  -4.0594
    -4.0593  -4.0591  -4.0491  -4.0491  -4.0491  -4.0482  -4.0482  -4.0481
    -4.0416  -4.0413  -4.0412  -4.0412  -4.0412  -4.0411  -4.0252  -4.0252
    -4.0248  -4.0247  -4.0243  -4.0242  -4.0037  -4.0036  -4.0035  -4.0033
    -4.0032  -4.0031  -3.9827  -3.9823  -3.9822  -3.8846  -3.8846  -3.8846
    -3.8814  -3.8809  -3.8807  -3.8796  -3.8791  -3.8790  -3.8757  -3.8756
     0.8543   1.5821   1.5823   1.5831   2.0696   2.0698   2.0707   2.2919
     2.2921   2.2930   2.7623   2.7625   2.7627   2.7629   2.7632   2.7646
     2.9431   3.2183   3.2186   3.2195   3.3052   3.3063   3.3064   4.0756
     4.0760   4.0764   4.0900   4.0902   4.0913   4.4179   4.6168   4.6168
     4.6169   4.6174   4.6175   4.6185   4.9719   4.9720   4.9722   4.9726
     4.9726   4.9734   5.1432   5.1434   5.1439   5.4368   5.4369   5.4370
     5.4374   5.4374   5.4386   5.5600   5.5605   5.5608   5.6977   5.6977
     5.6984   5.8623   5.8625   5.8626   6.1052   6.1053   6.1055   6.1055
     6.1063   6.1064   6.1660   6.1661   6.1664   6.3311   6.3313   6.3315
     6.6360   6.6361   6.6363   6.6365   6.6366   6.6372   6.6405   6.6406
     6.6407   6.6936   6.7294   6.7296   6.7297   6.7298   6.7299   6.7300
     6.7354   6.7354   6.7578   6.7579   6.7580   6.8191   6.8194   6.8194
     6.8212   6.8213   6.8216   6.8769   6.8769   6.8770   6.8825   6.8828
     6.8828   6.8850   6.8852   6.8853   6.8907   6.8908   6.8983   6.8985
     6.8987   6.9458   6.9461   6.9462   6.9838   6.9839   6.9840   6.9841
     6.9844   6.9845   7.0138   7.0141   7.0141   7.0404   7.0405   7.0406
     7.1053   7.1054   7.1057   7.1057   7.1060   7.1062   7.1088   7.1091
     7.1092   7.1144   7.1146   7.1147   7.1185   7.1188   7.1189   7.1201
     7.1202   7.1203   7.1204   7.1205   7.1208   7.1216   7.1220   7.1221
     7.1260   7.1260   7.1261   7.1283   7.1285   7.1287   7.1890   7.1890
     7.1891   7.1944   7.1945   7.1947   7.1958   7.1961   7.1961   7.1962
     7.1962   7.1965   7.1991   7.1992   7.2019   7.2019   7.2020   7.2023
     7.2023   7.2025   7.2025   7.2028   7.2031   7.2032   7.2032   7.2033
     7.2035   7.2038   7.2086   7.2087   7.2087   7.2278   7.2280   7.2280
     7.2282   7.2282   7.2284   7.2462   7.2869   7.2869   7.2870   7.2871
     7.2872   7.2873   7.3684   7.3685   7.3685   7.4349   7.4349   7.4350
     7.4351   7.4352   7.4353   7.4623   7.4623   7.4624   7.6383   7.6383
     7.6384   7.6386   7.6388   7.6390   7.8685   7.8688   7.8690   7.9219
     7.9222   7.9223   8.1880   8.1880   8.1881   8.1884   8.1888   8.1892
     8.2729   8.2731   8.2732   8.2810   8.2812   8.2815   8.2815   8.2817
     8.2821   8.6201   8.6201   8.6202   8.6413   8.6414   8.6420   8.9546
     8.9546   8.9551   9.4099   9.4104   9.4105   9.4209   9.4210   9.4215
     9.7004   9.7009   9.7009   9.7081   9.7083   9.7086  10.2832  10.2833
    10.2838  10.3036  10.3041  10.3043  10.3985  10.3989  10.3992  10.4443

          k = 0.1250 0.1250 0.3750 (111627 PWs)   bands (ev):

    -4.5301  -4.5246  -4.5055  -4.5024  -4.4977  -4.4975  -4.4968  -4.4897
    -4.4895  -4.4739  -4.4738  -4.4685  -4.4684  -4.4581  -4.4580  -4.4544
    -4.4408  -4.4407  -4.4330  -4.4255  -4.4202  -4.4202  -4.4163  -4.4161
    -4.4136  -4.4089  -4.4086  -4.4002  -4.4001  -4.3976  -4.3975  -4.3949
    -4.3910  -4.3910  -4.3897  -4.3895  -4.3891  -4.3891  -4.3874  -4.3799
    -4.3797  -4.3767  -4.3763  -4.3752  -4.3751  -4.3734  -4.3713  -4.3712
    -4.3688  -4.3682  -4.3635  -4.3635  -4.3578  -4.3528  -4.3527  -4.3479
    -4.3476  -4.3462  -4.3461  -4.3436  -4.3435  -4.3426  -4.3422  -4.3421
    -4.3415  -4.3408  -4.3405  -4.3393  -4.3393  -4.3372  -4.3371  -4.3262
    -4.3258  -4.3215  -4.3208  -4.3208  -4.3164  -4.3159  -4.3157  -4.3122
    -4.3119  -4.3089  -4.3085  -4.3046  -4.3045  -4.3013  -4.2989  -4.2969
    -4.2967  -4.2967  -4.2949  -4.2934  -4.2933  -4.2916  -4.2880  -4.2872
    -4.2869  -4.2863  -4.2858  -4.2792  -4.2790  -4.2783  -4.2783  -4.2783
    -4.2781  -4.2775  -4.2764  -4.2736  -4.2712  -4.2709  -4.2706  -4.2695
    -4.2694  -4.2694  -4.2692  -4.2666  -4.2666  -4.2574  -4.2573  -4.2555
    -4.2554  -4.2554  -4.2520  -4.2520  -4.2502  -4.2502  -4.2482  -4.2481
    -4.2433  -4.2410  -4.2402  -4.2402  -4.2399  -4.2365  -4.2357  -4.2356
    -4.2348  -4.2331  -4.2331  -4.2309  -4.2306  -4.2259  -4.2256  -4.2219
    -4.2217  -4.2206  -4.2205  -4.2203  -4.2201  -4.2167  -4.2166  -4.2166
    -4.2164  -4.2153  -4.2151  -4.2104  -4.2103  -4.2077  -4.2077  -4.2063
    -4.2061  -4.2044  -4.2043  -4.2035  -4.2030  -4.2021  -4.1970  -4.1970
    -4.1955  -4.1955  -4.1895  -4.1895  -4.1880  -4.1880  -4.1874  -4.1871
    -4.1867  -4.1866  -4.1864  -4.1860  -4.1834  -4.1833  -4.1828  -4.1811
    -4.1811  -4.1808  -4.1795  -4.1794  -4.1764  -4.1764  -4.1762  -4.1751
    -4.1751  -4.1740  -4.1738  -4.1683  -4.1677  -4.1676  -4.1639  -4.1638
    -4.1634  -4.1632  -4.1631  -4.1617  -4.1617  -4.1614  -4.1612  -4.1591
    -4.1591  -4.1582  -4.1581  -4.1568  -4.1568  -4.1550  -4.1549  -4.1533
    -4.1531  -4.1504  -4.1504  -4.1476  -4.1471  -4.1454  -4.1453  -4.1450
    -4.1439  -4.1438  -4.1436  -4.1416  -4.1412  -4.1410  -4.1410  -4.1395
    -4.1391  -4.1387  -4.1352  -4.1349  -4.1316  -4.1316  -4.1294  -4.1293
    -4.1254  -4.1253  -4.1251  -4.1219  -4.1201  -4.1181  -4.1181  -4.1145
    -4.1141  -4.1133  -4.1129  -4.1128  -4.1124  -4.1098  -4.1097  -4.1029
    -4.1025  -4.1023  -4.1019  -4.0990  -4.0986  -4.0960  -4.0960  -4.0898
    -4.0897  -4.0884  -4.0883  -4.0805  -4.0804  -4.0792  -4.0792  -4.0776
    -4.0773  -4.0740  -4.0739  -4.0733  -4.0723  -4.0723  -4.0713  -4.0701
    -4.0700  -4.0646  -4.0643  -4.0596  -4.0596  -4.0590  -4.0589  -4.0580
    -4.0557  -4.0527  -4.0523  -4.0522  -4.0522  -4.0450  -4.0425  -4.0338
    -4.0337  -4.0218  -4.0213  -4.0151  -4.0147  -4.0144  -3.9765  -3.9631
    -3.9631  -3.9541  -3.9540  -3.9467  -3.9466  -3.9127  -3.9127  -3.9112
    -3.9083  -3.9080  -3.9057  -3.9055  -3.8839  -3.8827  -3.8776  -3.8763
     0.9750   1.2174   1.7005   1.7010   1.9371   1.9377   2.1856   2.1862
     2.4038   2.4170   2.4176   2.6243   2.6751   2.8670   2.8679   3.0662
     3.0670   3.3072   3.3407   3.3412   3.3783   3.4316   3.7710   3.7716
     3.9980   3.9986   4.1689   4.1694   4.1868   4.3528   4.3533   4.3739
     4.3743   4.5132   4.5140   4.6832   4.7513   4.7519   4.8776   4.9044
     4.9046   5.0315   5.0324   5.0629   5.0635   5.2187   5.2192   5.3313
     5.3317   5.3562   5.6046   5.6053   5.7346   5.7353   5.7459   5.7463
     5.8793   5.8797   5.9158   5.9652   5.9656   6.0104   6.0106   6.0215
     6.1929   6.1933   6.3158   6.3322   6.3325   6.4914   6.5074   6.5075
     6.6188   6.6307   6.6311   6.6613   6.6616   6.6960   6.6962   6.7481
     6.7532   6.7629   6.7751   6.7800   6.7830   6.7831   6.7908   6.7909
     6.7935   6.7938   6.8005   6.8005   6.8055   6.8056   6.8146   6.8294
     6.8409   6.8411   6.8460   6.8588   6.8590   6.8595   6.8596   6.8661
     6.9012   6.9014   6.9015   6.9045   6.9047   6.9107   6.9111   6.9138
     6.9139   6.9241   6.9254   6.9478   6.9478   6.9493   6.9494   6.9639
     6.9679   6.9739   6.9740   6.9852   6.9913   6.9915   7.0478   7.0480
     7.0494   7.0494   7.0520   7.0626   7.0720   7.0721   7.0785   7.0788
     7.0846   7.0847   7.0978   7.0980   7.1061   7.1061   7.1198   7.1198
     7.1239   7.1240   7.1281   7.1281   7.1291   7.1293   7.1296   7.1299
     7.1366   7.1437   7.1437   7.1480   7.1510   7.1567   7.1605   7.1621
     7.1623   7.1682   7.1683   7.1751   7.1754   7.1786   7.1802   7.1803
     7.1810   7.1810   7.1857   7.1891   7.1973   7.1973   7.1989   7.1989
     7.1997   7.1998   7.1999   7.2017   7.2019   7.2021   7.2027   7.2031
     7.2032   7.2036   7.2037   7.2043   7.2043   7.2063   7.2064   7.2066
     7.2252   7.2419   7.2420   7.2542   7.2543   7.2852   7.2853   7.2932
     7.3151   7.3153   7.3333   7.3334   7.3529   7.3661   7.3662   7.3785
     7.3785   7.4326   7.4328   7.5421   7.5423   7.5449   7.5546   7.5869
     7.5870   7.6061   7.6061   7.6655   7.6657   7.8353   7.8358   7.8722
     7.8724   7.9400   7.9404   8.1572   8.2938   8.2942   8.3751   8.3753
     8.3797   8.3800   8.4551   8.5447   8.5450   8.6130   8.6133   8.6232
     8.6385   8.6391   8.7742   8.7744   8.7790   8.7941   8.7945   8.8275
     9.0107   9.0112   9.0814   9.0819   9.1770   9.1775   9.2004   9.4076
     9.4079   9.5106   9.6253   9.6352   9.6357   9.7634   9.7640   9.7858
     9.8804   9.9395   9.9399   9.9611   9.9726   9.9732  10.2063  10.2067

          k = 0.1250 0.3750 0.3750 (111665 PWs)   bands (ev):

    -4.5151  -4.5059  -4.5051  -4.4897  -4.4832  -4.4827  -4.4821  -4.4768
    -4.4768  -4.4748  -4.4674  -4.4522  -4.4499  -4.4499  -4.4443  -4.4435
    -4.4425  -4.4419  -4.4411  -4.4404  -4.4322  -4.4314  -4.4164  -4.4163
    -4.4163  -4.4155  -4.4094  -4.4092  -4.4072  -4.4039  -4.3942  -4.3875
    -4.3871  -4.3870  -4.3856  -4.3855  -4.3849  -4.3809  -4.3807  -4.3801
    -4.3801  -4.3793  -4.3792  -4.3770  -4.3765  -4.3755  -4.3746  -4.3734
    -4.3719  -4.3687  -4.3655  -4.3608  -4.3585  -4.3583  -4.3576  -4.3571
    -4.3566  -4.3563  -4.3544  -4.3508  -4.3500  -4.3496  -4.3496  -4.3453
    -4.3446  -4.3442  -4.3437  -4.3427  -4.3413  -4.3404  -4.3353  -4.3353
    -4.3319  -4.3317  -4.3316  -4.3301  -4.3296  -4.3293  -4.3285  -4.3279
    -4.3278  -4.3277  -4.3213  -4.3202  -4.3197  -4.3093  -4.3092  -4.3091
    -4.3090  -4.3057  -4.3057  -4.3028  -4.2995  -4.2994  -4.2975  -4.2944
    -4.2940  -4.2926  -4.2925  -4.2897  -4.2896  -4.2789  -4.2757  -4.2756
    -4.2716  -4.2714  -4.2713  -4.2713  -4.2705  -4.2695  -4.2693  -4.2602
    -4.2602  -4.2593  -4.2593  -4.2587  -4.2561  -4.2553  -4.2545  -4.2543
    -4.2523  -4.2495  -4.2494  -4.2492  -4.2491  -4.2439  -4.2436  -4.2425
    -4.2394  -4.2392  -4.2390  -4.2384  -4.2384  -4.2367  -4.2366  -4.2352
    -4.2352  -4.2349  -4.2321  -4.2320  -4.2290  -4.2282  -4.2251  -4.2244
    -4.2197  -4.2189  -4.2188  -4.2153  -4.2153  -4.2128  -4.2125  -4.2119
    -4.2088  -4.2088  -4.2088  -4.2088  -4.2080  -4.2080  -4.2051  -4.2051
    -4.2036  -4.2036  -4.2014  -4.2014  -4.2000  -4.2000  -4.1986  -4.1986
    -4.1966  -4.1965  -4.1964  -4.1930  -4.1930  -4.1885  -4.1885  -4.1869
    -4.1867  -4.1860  -4.1858  -4.1852  -4.1850  -4.1850  -4.1844  -4.1833
    -4.1830  -4.1828  -4.1825  -4.1821  -4.1790  -4.1789  -4.1780  -4.1776
    -4.1774  -4.1773  -4.1772  -4.1749  -4.1748  -4.1708  -4.1701  -4.1695
    -4.1693  -4.1685  -4.1669  -4.1668  -4.1646  -4.1646  -4.1605  -4.1592
    -4.1592  -4.1586  -4.1583  -4.1582  -4.1581  -4.1579  -4.1578  -4.1549
    -4.1540  -4.1538  -4.1537  -4.1536  -4.1536  -4.1534  -4.1534  -4.1529
    -4.1528  -4.1493  -4.1479  -4.1473  -4.1472  -4.1337  -4.1335  -4.1322
    -4.1322  -4.1295  -4.1267  -4.1261  -4.1258  -4.1252  -4.1236  -4.1226
    -4.1204  -4.1161  -4.1161  -4.1141  -4.1140  -4.1133  -4.1126  -4.1051
    -4.1027  -4.1026  -4.1023  -4.1022  -4.1019  -4.1017  -4.0999  -4.0995
    -4.0952  -4.0951  -4.0945  -4.0926  -4.0926  -4.0917  -4.0908  -4.0908
    -4.0899  -4.0886  -4.0885  -4.0877  -4.0852  -4.0838  -4.0831  -4.0822
    -4.0814  -4.0762  -4.0762  -4.0738  -4.0737  -4.0704  -4.0697  -4.0692
    -4.0683  -4.0665  -4.0665  -4.0633  -4.0560  -4.0559  -4.0536  -4.0536
    -4.0495  -4.0495  -4.0438  -4.0436  -4.0411  -4.0334  -4.0301  -4.0236
    -3.9913  -3.9906  -3.9877  -3.9871  -3.9834  -3.9827  -3.9779  -3.9772
    -3.9619  -3.9612  -3.9586  -3.9586  -3.9407  -3.9358  -3.9335  -3.9315
    -3.9289  -3.9119  -3.9119  -3.9106  -3.9099  -3.9028  -3.9020  -3.8948
     1.0954   1.3366   1.3374   1.5769   1.8181   2.0523   2.0531   2.2827
     2.3004   2.5281   2.5288   2.7483   2.7867   2.7876   3.0099   3.0101
     3.4295   3.4305   3.4836   3.4838   3.5571   3.5580   3.6921   3.6931
     3.8005   3.8018   4.0380   4.0387   4.2590   4.2668   4.2803   4.2812
     4.4267   4.4273   4.4496   4.4499   4.6165   4.6173   4.6704   4.7723
     4.7729   4.8872   4.8873   4.9645   5.3000   5.3142   5.4195   5.4202
     5.4257   5.4262   5.5578   5.5580   5.7026   5.7030   5.7334   5.7335
     5.7871   5.8475   5.8509   5.8515   6.0073   6.0522   6.0536   6.1856
     6.2672   6.3727   6.3730   6.3823   6.3824   6.4996   6.4997   6.5224
     6.6779   6.6780   6.7197   6.7197   6.7579   6.7746   6.7752   6.7760
     6.7760   6.7762   6.7763   6.7774   6.7838   6.8076   6.8080   6.8182
     6.8186   6.8251   6.8252   6.8290   6.8292   6.8357   6.8358   6.8415
     6.8511   6.8532   6.8535   6.8624   6.8644   6.8704   6.8712   6.8793
     6.8895   6.8909   6.8910   6.8968   6.9189   6.9191   6.9268   6.9271
     6.9364   6.9369   6.9444   6.9446   6.9589   6.9594   6.9715   6.9718
     6.9729   6.9732   6.9734   6.9915   6.9916   7.0273   7.0275   7.0401
     7.0405   7.0479   7.0481   7.0516   7.0520   7.0544   7.0546   7.0592
     7.0727   7.0730   7.0730   7.0734   7.0883   7.0888   7.0897   7.0902
     7.0955   7.1043   7.1078   7.1228   7.1231   7.1250   7.1329   7.1333
     7.1370   7.1482   7.1487   7.1522   7.1588   7.1610   7.1612   7.1650
     7.1650   7.1679   7.1700   7.1703   7.1710   7.1807   7.1808   7.1812
     7.1814   7.1836   7.1910   7.1915   7.1952   7.1959   7.1972   7.1981
     7.1983   7.1987   7.1987   7.1993   7.1996   7.2000   7.2006   7.2006
     7.2008   7.2015   7.2020   7.2031   7.2036   7.2039   7.2046   7.2049
     7.2050   7.2122   7.2124   7.2427   7.2427   7.2488   7.2492   7.2627
     7.2629   7.2692   7.2692   7.3160   7.3264   7.3264   7.3403   7.4269
     7.4271   7.5345   7.5508   7.5511   7.5916   7.5919   7.6009   7.6015
     7.6074   7.6923   7.7697   7.7700   7.8336   7.8339   7.8769   7.8957
     7.8959   7.9408   7.9416   8.0471   8.0472   8.1109   8.1112   8.2457
     8.2826   8.2828   8.4215   8.4218   8.5046   8.5048   8.6352   8.6360
     8.7207   8.7565   8.7567   8.9693   8.9721   8.9726   9.0060   9.0066
     9.1705   9.1714   9.1874   9.1882   9.2304   9.2309   9.2598   9.2599
     9.4130   9.4139   9.5977   9.5997   9.5998   9.6128   9.7838   9.7840
     9.7912   9.8166   9.9619  10.0452  10.0459  10.0474  10.1163  10.1169

          k = 0.3750 0.3750 0.3750 (111652 PWs)   bands (ev):

    -4.4868  -4.4868  -4.4820  -4.4815  -4.4813  -4.4609  -4.4604  -4.4602
    -4.4554  -4.4552  -4.4551  -4.4541  -4.4537  -4.4536  -4.4350  -4.4348
    -4.4346  -4.4248  -4.4247  -4.4245  -4.4243  -4.4241  -4.4240  -4.4194
    -4.4194  -4.4189  -4.4189  -4.4185  -4.4185  -4.4051  -4.4046  -4.4044
    -4.4003  -4.4002  -4.4002  -4.4001  -4.4001  -4.3936  -4.3935  -4.3934
    -4.3812  -4.3812  -4.3812  -4.3766  -4.3761  -4.3759  -4.3712  -4.3710
    -4.3710  -4.3707  -4.3706  -4.3704  -4.3671  -4.3669  -4.3668  -4.3656
    -4.3649  -4.3646  -4.3646  -4.3644  -4.3642  -4.3640  -4.3546  -4.3545
    -4.3476  -4.3476  -4.3475  -4.3472  -4.3470  -4.3469  -4.3377  -4.3376
    -4.3376  -4.3332  -4.3329  -4.3324  -4.3322  -4.3321  -4.3321  -4.3295
    -4.3292  -4.3290  -4.3287  -4.3284  -4.3282  -4.3260  -4.3256  -4.3255
    -4.3252  -4.3249  -4.3247  -4.3245  -4.3120  -4.3119  -4.3119  -4.3050
    -4.3049  -4.3046  -4.3044  -4.3043  -4.2765  -4.2764  -4.2764  -4.2654
    -4.2652  -4.2651  -4.2647  -4.2646  -4.2643  -4.2508  -4.2505  -4.2504
    -4.2412  -4.2410  -4.2407  -4.2381  -4.2379  -4.2379  -4.2377  -4.2375
    -4.2373  -4.2285  -4.2283  -4.2282  -4.2272  -4.2271  -4.2270  -4.2269
    -4.2267  -4.2267  -4.2266  -4.2265  -4.2263  -4.2225  -4.2224  -4.2224
    -4.2212  -4.2211  -4.2209  -4.2207  -4.2203  -4.2201  -4.2131  -4.2129
    -4.2129  -4.2128  -4.2127  -4.2127  -4.2090  -4.2090  -4.2090  -4.2075
    -4.2075  -4.2075  -4.2028  -4.2026  -4.2025  -4.2024  -4.2023  -4.2023
    -4.2022  -4.2022  -4.2021  -4.2021  -4.2020  -4.2019  -4.2018  -4.2017
    -4.2017  -4.2004  -4.2004  -4.2003  -4.1995  -4.1994  -4.1994  -4.1993
    -4.1992  -4.1992  -4.1988  -4.1986  -4.1986  -4.1943  -4.1942  -4.1942
    -4.1942  -4.1942  -4.1941  -4.1921  -4.1920  -4.1919  -4.1917  -4.1916
    -4.1916  -4.1859  -4.1857  -4.1853  -4.1824  -4.1824  -4.1823  -4.1811
    -4.1808  -4.1805  -4.1797  -4.1796  -4.1796  -4.1793  -4.1791  -4.1789
    -4.1764  -4.1763  -4.1762  -4.1753  -4.1752  -4.1749  -4.1740  -4.1737
    -4.1735  -4.1725  -4.1723  -4.1722  -4.1719  -4.1719  -4.1717  -4.1509
    -4.1508  -4.1505  -4.1503  -4.1501  -4.1499  -4.1331  -4.1329  -4.1328
    -4.1239  -4.1239  -4.1239  -4.1238  -4.1202  -4.1201  -4.1095  -4.1095
    -4.1094  -4.1046  -4.1045  -4.1045  -4.1019  -4.1017  -4.1013  -4.1007
    -4.1003  -4.1001  -4.0994  -4.0991  -4.0989  -4.0986  -4.0985  -4.0981
    -4.0885  -4.0883  -4.0883  -4.0879  -4.0878  -4.0877  -4.0856  -4.0855
    -4.0855  -4.0851  -4.0850  -4.0849  -4.0802  -4.0801  -4.0799  -4.0779
    -4.0779  -4.0778  -4.0674  -4.0674  -4.0673  -4.0648  -4.0648  -4.0647
    -4.0399  -4.0394  -4.0392  -4.0367  -4.0367  -4.0367  -4.0272  -4.0271
    -4.0253  -4.0248  -4.0246  -3.9941  -3.9938  -3.9937  -3.9899  -3.9899
    -3.9896  -3.9894  -3.9890  -3.9889  -3.9872  -3.9871  -3.9869  -3.9867
    -3.9864  -3.9864  -3.9655  -3.9652  -3.9651  -3.9398  -3.9397  -3.9397
    -3.9384  -3.9379  -3.9377  -3.9318  -3.9313  -3.9311  -3.9298  -3.9298
     1.2154   1.4557   1.4559   1.4567   1.6942   1.6944   1.6953   1.9302
     2.8964   2.8966   2.8975   3.1132   3.1134   3.1136   3.1138   3.1141
     3.1154   3.3124   3.3133   3.3137   3.5848   3.5855   3.5860   3.7821
     3.7822   3.7824   3.7827   3.7830   3.7842   3.9223   3.9226   3.9239
     4.5408   4.5408   4.5412   4.6980   4.6983   4.6991   5.0172   5.0174
     5.0176   5.0179   5.0179   5.0191   5.1909   5.1910   5.1912   5.1915
     5.1915   5.1928   5.4461   5.4464   5.4470   5.5945   5.5947   5.5952
     5.6624   5.9849   5.9851   5.9856   6.2249   6.2252   6.2255   6.4076
     6.4484   6.4487   6.4491   6.5567   6.5568   6.5569   6.5571   6.5571
     6.5577   6.6378   6.6378   6.6381   6.7917   6.7917   6.7998   6.7998
     6.7999   6.8001   6.8002   6.8003   6.8081   6.8081   6.8083   6.8096
     6.8099   6.8099   6.8180   6.8181   6.8182   6.8194   6.8195   6.8199
     6.8245   6.8246   6.8250   6.8592   6.8594   6.8595   6.8597   6.8598
     6.9399   6.9401   6.9403   6.9533   6.9536   6.9536   6.9542   6.9543
     6.9544   6.9547   6.9548   6.9549   6.9743   6.9743   6.9745   6.9747
     6.9749   6.9750   6.9971   6.9974   6.9975   7.0270   7.0272   7.0274
     7.0341   7.0342   7.0343   7.0572   7.0574   7.0575   7.0575   7.0578
     7.0578   7.0846   7.0848   7.0849   7.0999   7.1001   7.1003   7.1184
     7.1185   7.1186   7.1187   7.1187   7.1188   7.1564   7.1564   7.1566
     7.1638   7.1642   7.1643   7.1662   7.1663   7.1664   7.1684   7.1688
     7.1688   7.1818   7.1818   7.1870   7.1872   7.1873   7.1875   7.1877
     7.1924   7.1924   7.1926   7.1931   7.1934   7.1936   7.1949   7.1952
     7.1952   7.1963   7.1965   7.1966   7.1967   7.1967   7.1970   7.2003
     7.2008   7.2008   7.2028   7.2028   7.2029   7.2030   7.2031   7.2032
     7.2053   7.2053   7.2054   7.2076   7.2078   7.2079   7.2079   7.2081
     7.2083   7.2375   7.2376   7.2376   7.2563   7.2565   7.2566   7.3172
     7.3173   7.3173   7.3176   7.3178   7.3178   7.5300   7.5300   7.5303
     7.8033   7.9393   7.9395   7.9397   7.9398   7.9401   7.9404   7.9593
     7.9596   7.9596   8.0903   8.0907   8.0908   8.1988   8.1991   8.1991
     8.6121   8.6125   8.6126   8.6421   8.6423   8.6423   8.6425   8.6431
     8.6438   8.6853   8.6856   8.6858   8.9743   8.9751   8.9752   9.1505
     9.1509   9.1510   9.1512   9.1514   9.1516   9.1519   9.1519   9.1528
     9.2269   9.4908   9.4912   9.4913   9.5416   9.5418   9.5420   9.5423
     9.5424   9.5426   9.7486   9.7491   9.7492  10.0409  10.0410  10.0411

          k = 0.1250 0.1250-0.1250 (111629 PWs)   bands (ev):

    -4.5331  -4.5331  -4.5176  -4.5175  -4.5172  -4.5098  -4.5097  -4.5095
    -4.4938  -4.4938  -4.4938  -4.4441  -4.4440  -4.4439  -4.4371  -4.4371
    -4.4370  -4.4276  -4.4276  -4.4275  -4.4275  -4.4273  -4.4273  -4.4159
    -4.4158  -4.4158  -4.4058  -4.4058  -4.4058  -4.4052  -4.4051  -4.4049
    -4.4049  -4.4048  -4.4047  -4.4047  -4.4046  -4.4045  -4.3874  -4.3873
    -4.3872  -4.3841  -4.3826  -4.3825  -4.3750  -4.3749  -4.3747  -4.3747
    -4.3744  -4.3744  -4.3510  -4.3509  -4.3508  -4.3507  -4.3505  -4.3505
    -4.3353  -4.3352  -4.3351  -4.3343  -4.3343  -4.3342  -4.3341  -4.3340
    -4.3339  -4.3328  -4.3328  -4.3328  -4.3171  -4.3170  -4.3169  -4.3116
    -4.3115  -4.3112  -4.3069  -4.3067  -4.3066  -4.3063  -4.3062  -4.3061
    -4.3061  -4.3059  -4.3059  -4.2923  -4.2922  -4.2920  -4.2904  -4.2902
    -4.2900  -4.2899  -4.2898  -4.2898  -4.2858  -4.2858  -4.2808  -4.2808
    -4.2808  -4.2779  -4.2778  -4.2777  -4.2777  -4.2775  -4.2775  -4.2739
    -4.2738  -4.2737  -4.2710  -4.2697  -4.2696  -4.2696  -4.2678  -4.2676
    -4.2675  -4.2674  -4.2673  -4.2671  -4.2654  -4.2652  -4.2650  -4.2564
    -4.2563  -4.2563  -4.2426  -4.2425  -4.2424  -4.2422  -4.2422  -4.2379
    -4.2379  -4.2378  -4.2281  -4.2280  -4.2280  -4.2279  -4.2277  -4.2275
    -4.2221  -4.2221  -4.2219  -4.2219  -4.2218  -4.2217  -4.2207  -4.2206
    -4.2206  -4.2149  -4.2147  -4.2145  -4.2145  -4.2143  -4.2143  -4.2140
    -4.2139  -4.2138  -4.2127  -4.2127  -4.2126  -4.2033  -4.2033  -4.2031
    -4.2031  -4.2030  -4.2029  -4.2029  -4.2029  -4.2028  -4.1985  -4.1985
    -4.1984  -4.1976  -4.1976  -4.1975  -4.1947  -4.1947  -4.1946  -4.1936
    -4.1935  -4.1935  -4.1935  -4.1935  -4.1934  -4.1914  -4.1914  -4.1914
    -4.1913  -4.1913  -4.1913  -4.1878  -4.1878  -4.1878  -4.1871  -4.1871
    -4.1870  -4.1870  -4.1870  -4.1869  -4.1831  -4.1761  -4.1760  -4.1760
    -4.1757  -4.1756  -4.1730  -4.1730  -4.1729  -4.1683  -4.1682  -4.1682
    -4.1663  -4.1661  -4.1659  -4.1533  -4.1532  -4.1531  -4.1522  -4.1522
    -4.1522  -4.1483  -4.1483  -4.1453  -4.1451  -4.1449  -4.1432  -4.1431
    -4.1429  -4.1427  -4.1425  -4.1423  -4.1367  -4.1366  -4.1365  -4.1365
    -4.1363  -4.1362  -4.1352  -4.1351  -4.1349  -4.1330  -4.1328  -4.1327
    -4.1326  -4.1324  -4.1324  -4.1305  -4.1303  -4.1303  -4.1157  -4.1155
    -4.1154  -4.1152  -4.1151  -4.1149  -4.1088  -4.1087  -4.1085  -4.1078
    -4.1076  -4.1075  -4.1055  -4.1055  -4.1053  -4.1053  -4.1051  -4.1050
    -4.0977  -4.0977  -4.0976  -4.0975  -4.0973  -4.0971  -4.0844  -4.0844
    -4.0841  -4.0841  -4.0839  -4.0838  -4.0650  -4.0648  -4.0647  -4.0594
    -4.0592  -4.0592  -4.0491  -4.0491  -4.0491  -4.0482  -4.0481  -4.0481
    -4.0415  -4.0413  -4.0412  -4.0412  -4.0412  -4.0412  -4.0251  -4.0250
    -4.0247  -4.0247  -4.0245  -4.0244  -4.0036  -4.0035  -4.0034  -4.0034
    -4.0032  -4.0032  -3.9826  -3.9824  -3.9823  -3.8846  -3.8846  -3.8846
    -3.8813  -3.8811  -3.8808  -3.8794  -3.8792  -3.8790  -3.8757  -3.8756
     0.8543   1.5821   1.5825   1.5829   2.0696   2.0700   2.0704   2.2919
     2.2923   2.2927   2.7621   2.7627   2.7629   2.7630   2.7633   2.7644
     2.9429   3.2183   3.2187   3.2190   3.3057   3.3058   3.3068   4.0756
     4.0760   4.0764   4.0896   4.0906   4.0908   4.4181   4.6167   4.6170
     4.6172   4.6173   4.6176   4.6182   4.9717   4.9722   4.9724   4.9725
     4.9726   4.9732   5.1433   5.1435   5.1439   5.4365   5.4372   5.4372
     5.4374   5.4376   5.4382   5.5600   5.5603   5.5607   5.6976   5.6980
     5.6983   5.8624   5.8625   5.8626   6.1053   6.1053   6.1055   6.1056
     6.1057   6.1066   6.1660   6.1661   6.1664   6.3311   6.3313   6.3315
     6.6360   6.6361   6.6362   6.6365   6.6368   6.6370   6.6404   6.6405
     6.6407   6.6937   6.7295   6.7296   6.7297   6.7297   6.7300   6.7302
     6.7353   6.7354   6.7578   6.7579   6.7580   6.8192   6.8193   6.8194
     6.8212   6.8213   6.8217   6.8768   6.8769   6.8770   6.8825   6.8827
     6.8828   6.8850   6.8851   6.8853   6.8907   6.8908   6.8983   6.8985
     6.8988   6.9459   6.9460   6.9462   6.9838   6.9839   6.9841   6.9841
     6.9842   6.9846   7.0139   7.0141   7.0141   7.0404   7.0406   7.0406
     7.1053   7.1054   7.1057   7.1057   7.1059   7.1061   7.1088   7.1091
     7.1091   7.1144   7.1146   7.1147   7.1185   7.1188   7.1189   7.1201
     7.1203   7.1203   7.1204   7.1205   7.1208   7.1217   7.1219   7.1220
     7.1260   7.1260   7.1262   7.1283   7.1285   7.1288   7.1889   7.1890
     7.1890   7.1943   7.1945   7.1947   7.1958   7.1961   7.1961   7.1962
     7.1962   7.1965   7.1991   7.1992   7.2019   7.2019   7.2020   7.2022
     7.2023   7.2025   7.2025   7.2028   7.2030   7.2031   7.2032   7.2033
     7.2035   7.2038   7.2085   7.2087   7.2087   7.2279   7.2280   7.2281
     7.2281   7.2282   7.2284   7.2462   7.2867   7.2869   7.2869   7.2870
     7.2871   7.2872   7.3684   7.3685   7.3685   7.4349   7.4349   7.4351
     7.4351   7.4352   7.4354   7.4623   7.4623   7.4627   7.6382   7.6383
     7.6384   7.6385   7.6386   7.6389   7.8686   7.8688   7.8691   7.9220
     7.9221   7.9224   8.1877   8.1880   8.1882   8.1882   8.1884   8.1889
     8.2730   8.2731   8.2734   8.2811   8.2813   8.2813   8.2815   8.2819
     8.2819   8.6200   8.6201   8.6201   8.6415   8.6415   8.6423   8.9546
     8.9547   8.9554   9.4100   9.4102   9.4107   9.4208   9.4211   9.4214
     9.7006   9.7008   9.7008   9.7081   9.7083   9.7085  10.2830  10.2834
    10.2835  10.3038  10.3039  10.3041  10.3985  10.3987  10.3992  10.4442

          k = 0.1250 0.1250-0.3750 (111627 PWs)   bands (ev):

    -4.5301  -4.5246  -4.5055  -4.5024  -4.4977  -4.4975  -4.4968  -4.4897
    -4.4895  -4.4738  -4.4738  -4.4685  -4.4685  -4.4581  -4.4580  -4.4544
    -4.4408  -4.4407  -4.4330  -4.4255  -4.4202  -4.4202  -4.4163  -4.4161
    -4.4136  -4.4089  -4.4086  -4.4002  -4.4001  -4.3976  -4.3975  -4.3949
    -4.3911  -4.3910  -4.3897  -4.3895  -4.3891  -4.3890  -4.3874  -4.3800
    -4.3797  -4.3767  -4.3763  -4.3752  -4.3751  -4.3734  -4.3712  -4.3711
    -4.3689  -4.3682  -4.3635  -4.3635  -4.3578  -4.3528  -4.3527  -4.3479
    -4.3476  -4.3462  -4.3461  -4.3436  -4.3435  -4.3427  -4.3422  -4.3421
    -4.3415  -4.3408  -4.3405  -4.3393  -4.3393  -4.3372  -4.3371  -4.3262
    -4.3258  -4.3215  -4.3208  -4.3208  -4.3164  -4.3159  -4.3158  -4.3122
    -4.3118  -4.3089  -4.3086  -4.3046  -4.3045  -4.3013  -4.2989  -4.2970
    -4.2967  -4.2966  -4.2949  -4.2934  -4.2933  -4.2916  -4.2880  -4.2872
    -4.2869  -4.2863  -4.2858  -4.2792  -4.2789  -4.2784  -4.2783  -4.2783
    -4.2782  -4.2775  -4.2765  -4.2735  -4.2711  -4.2709  -4.2706  -4.2695
    -4.2694  -4.2694  -4.2692  -4.2666  -4.2665  -4.2573  -4.2573  -4.2557
    -4.2554  -4.2554  -4.2520  -4.2520  -4.2502  -4.2502  -4.2482  -4.2481
    -4.2432  -4.2410  -4.2402  -4.2402  -4.2399  -4.2365  -4.2357  -4.2356
    -4.2347  -4.2331  -4.2331  -4.2309  -4.2306  -4.2259  -4.2256  -4.2219
    -4.2217  -4.2207  -4.2206  -4.2202  -4.2201  -4.2167  -4.2167  -4.2166
    -4.2164  -4.2152  -4.2151  -4.2104  -4.2103  -4.2077  -4.2077  -4.2062
    -4.2061  -4.2044  -4.2043  -4.2035  -4.2030  -4.2021  -4.1970  -4.1970
    -4.1955  -4.1955  -4.1895  -4.1895  -4.1880  -4.1880  -4.1874  -4.1871
    -4.1869  -4.1865  -4.1863  -4.1860  -4.1834  -4.1833  -4.1828  -4.1813
    -4.1811  -4.1807  -4.1795  -4.1794  -4.1764  -4.1764  -4.1762  -4.1751
    -4.1750  -4.1739  -4.1738  -4.1683  -4.1676  -4.1676  -4.1639  -4.1637
    -4.1634  -4.1632  -4.1631  -4.1617  -4.1617  -4.1614  -4.1612  -4.1592
    -4.1591  -4.1582  -4.1581  -4.1568  -4.1568  -4.1550  -4.1549  -4.1533
    -4.1530  -4.1504  -4.1504  -4.1476  -4.1470  -4.1454  -4.1453  -4.1451
    -4.1438  -4.1437  -4.1436  -4.1416  -4.1412  -4.1411  -4.1411  -4.1395
    -4.1391  -4.1387  -4.1353  -4.1349  -4.1316  -4.1316  -4.1294  -4.1293
    -4.1254  -4.1253  -4.1251  -4.1219  -4.1201  -4.1181  -4.1181  -4.1145
    -4.1141  -4.1132  -4.1128  -4.1128  -4.1124  -4.1099  -4.1097  -4.1029
    -4.1025  -4.1023  -4.1019  -4.0990  -4.0986  -4.0961  -4.0960  -4.0898
    -4.0897  -4.0884  -4.0883  -4.0805  -4.0805  -4.0792  -4.0792  -4.0776
    -4.0773  -4.0741  -4.0739  -4.0733  -4.0723  -4.0722  -4.0713  -4.0701
    -4.0700  -4.0646  -4.0643  -4.0596  -4.0595  -4.0590  -4.0590  -4.0580
    -4.0557  -4.0527  -4.0523  -4.0522  -4.0522  -4.0450  -4.0425  -4.0337
    -4.0337  -4.0218  -4.0213  -4.0151  -4.0147  -4.0144  -3.9765  -3.9631
    -3.9631  -3.9541  -3.9540  -3.9467  -3.9466  -3.9127  -3.9127  -3.9113
    -3.9083  -3.9080  -3.9057  -3.9055  -3.8839  -3.8827  -3.8776  -3.8763
     0.9750   1.2174   1.7005   1.7010   1.9371   1.9377   2.1856   2.1861
     2.4038   2.4171   2.4176   2.6242   2.6751   2.8670   2.8678   3.0662
     3.0670   3.3071   3.3407   3.3413   3.3783   3.4321   3.7709   3.7714
     3.9980   3.9985   4.1689   4.1695   4.1863   4.3527   4.3532   4.3741
     4.3748   4.5132   4.5140   4.6835   4.7512   4.7514   4.8778   4.9044
     4.9048   5.0315   5.0324   5.0629   5.0635   5.2187   5.2193   5.3315
     5.3319   5.3561   5.6040   5.6047   5.7352   5.7357   5.7460   5.7462
     5.8791   5.8796   5.9158   5.9652   5.9656   6.0103   6.0106   6.0215
     6.1929   6.1932   6.3157   6.3321   6.3323   6.4914   6.5074   6.5075
     6.6188   6.6309   6.6315   6.6613   6.6615   6.6961   6.6962   6.7481
     6.7531   6.7628   6.7752   6.7800   6.7830   6.7831   6.7908   6.7910
     6.7934   6.7937   6.8005   6.8005   6.8055   6.8056   6.8146   6.8294
     6.8409   6.8411   6.8461   6.8588   6.8590   6.8595   6.8596   6.8660
     6.9011   6.9014   6.9014   6.9046   6.9047   6.9107   6.9110   6.9138
     6.9139   6.9242   6.9255   6.9478   6.9478   6.9492   6.9495   6.9639
     6.9679   6.9739   6.9742   6.9852   6.9913   6.9914   7.0478   7.0480
     7.0493   7.0494   7.0520   7.0625   7.0721   7.0722   7.0786   7.0788
     7.0846   7.0847   7.0978   7.0980   7.1061   7.1061   7.1198   7.1198
     7.1239   7.1240   7.1281   7.1281   7.1291   7.1293   7.1296   7.1299
     7.1366   7.1437   7.1437   7.1480   7.1510   7.1567   7.1605   7.1621
     7.1622   7.1682   7.1683   7.1751   7.1753   7.1786   7.1802   7.1803
     7.1810   7.1811   7.1857   7.1891   7.1973   7.1973   7.1989   7.1989
     7.1997   7.1998   7.1999   7.2016   7.2019   7.2022   7.2027   7.2030
     7.2031   7.2036   7.2037   7.2043   7.2043   7.2063   7.2064   7.2067
     7.2252   7.2420   7.2420   7.2542   7.2543   7.2852   7.2853   7.2932
     7.3151   7.3152   7.3333   7.3333   7.3530   7.3661   7.3662   7.3785
     7.3786   7.4326   7.4327   7.5422   7.5423   7.5448   7.5545   7.5870
     7.5873   7.6060   7.6061   7.6656   7.6658   7.8352   7.8354   7.8723
     7.8725   7.9400   7.9403   8.1574   8.2939   8.2942   8.3751   8.3753
     8.3797   8.3801   8.4553   8.5447   8.5449   8.6127   8.6131   8.6231
     8.6385   8.6387   8.7742   8.7747   8.7787   8.7941   8.7945   8.8274
     9.0105   9.0111   9.0818   9.0822   9.1772   9.1778   9.2004   9.4077
     9.4084   9.5107   9.6254   9.6352   9.6355   9.7632   9.7637   9.7858
     9.8804   9.9392   9.9396   9.9611   9.9729   9.9735  10.2066  10.2070

          k = 0.3750-0.1250 0.1250 (111627 PWs)   bands (ev):

    -4.5301  -4.5246  -4.5055  -4.5024  -4.4976  -4.4976  -4.4968  -4.4896
    -4.4896  -4.4738  -4.4738  -4.4685  -4.4685  -4.4581  -4.4581  -4.4544
    -4.4408  -4.4407  -4.4330  -4.4255  -4.4202  -4.4202  -4.4162  -4.4162
    -4.4137  -4.4087  -4.4087  -4.4001  -4.4001  -4.3976  -4.3976  -4.3949
    -4.3910  -4.3910  -4.3896  -4.3896  -4.3891  -4.3891  -4.3874  -4.3798
    -4.3798  -4.3765  -4.3765  -4.3751  -4.3751  -4.3734  -4.3712  -4.3712
    -4.3689  -4.3681  -4.3635  -4.3635  -4.3578  -4.3528  -4.3528  -4.3478
    -4.3478  -4.3462  -4.3462  -4.3436  -4.3436  -4.3424  -4.3424  -4.3421
    -4.3414  -4.3407  -4.3406  -4.3393  -4.3393  -4.3372  -4.3372  -4.3260
    -4.3260  -4.3216  -4.3208  -4.3208  -4.3164  -4.3159  -4.3158  -4.3120
    -4.3120  -4.3087  -4.3087  -4.3045  -4.3045  -4.3012  -4.2989  -4.2970
    -4.2967  -4.2966  -4.2950  -4.2934  -4.2934  -4.2915  -4.2880  -4.2870
    -4.2870  -4.2861  -4.2861  -4.2791  -4.2790  -4.2783  -4.2783  -4.2782
    -4.2782  -4.2776  -4.2764  -4.2735  -4.2711  -4.2708  -4.2707  -4.2694
    -4.2694  -4.2693  -4.2693  -4.2666  -4.2666  -4.2574  -4.2573  -4.2555
    -4.2554  -4.2554  -4.2520  -4.2520  -4.2502  -4.2502  -4.2482  -4.2482
    -4.2432  -4.2410  -4.2402  -4.2402  -4.2399  -4.2365  -4.2357  -4.2356
    -4.2347  -4.2331  -4.2331  -4.2309  -4.2307  -4.2257  -4.2257  -4.2218
    -4.2218  -4.2206  -4.2206  -4.2202  -4.2201  -4.2167  -4.2167  -4.2165
    -4.2165  -4.2152  -4.2151  -4.2104  -4.2104  -4.2077  -4.2077  -4.2062
    -4.2061  -4.2044  -4.2043  -4.2035  -4.2029  -4.2021  -4.1970  -4.1970
    -4.1955  -4.1954  -4.1894  -4.1894  -4.1880  -4.1879  -4.1875  -4.1872
    -4.1867  -4.1866  -4.1863  -4.1860  -4.1834  -4.1834  -4.1828  -4.1812
    -4.1810  -4.1807  -4.1795  -4.1795  -4.1764  -4.1764  -4.1762  -4.1751
    -4.1751  -4.1740  -4.1739  -4.1684  -4.1676  -4.1675  -4.1639  -4.1636
    -4.1636  -4.1632  -4.1631  -4.1617  -4.1617  -4.1613  -4.1613  -4.1592
    -4.1591  -4.1582  -4.1582  -4.1568  -4.1568  -4.1550  -4.1549  -4.1532
    -4.1530  -4.1504  -4.1504  -4.1477  -4.1470  -4.1453  -4.1453  -4.1450
    -4.1439  -4.1437  -4.1436  -4.1414  -4.1414  -4.1411  -4.1411  -4.1393
    -4.1393  -4.1387  -4.1351  -4.1351  -4.1316  -4.1316  -4.1293  -4.1293
    -4.1254  -4.1252  -4.1252  -4.1220  -4.1201  -4.1181  -4.1181  -4.1143
    -4.1142  -4.1130  -4.1130  -4.1127  -4.1126  -4.1098  -4.1098  -4.1027
    -4.1027  -4.1021  -4.1021  -4.0988  -4.0988  -4.0960  -4.0960  -4.0899
    -4.0896  -4.0883  -4.0883  -4.0805  -4.0805  -4.0792  -4.0792  -4.0774
    -4.0774  -4.0741  -4.0740  -4.0733  -4.0723  -4.0723  -4.0713  -4.0702
    -4.0700  -4.0645  -4.0644  -4.0596  -4.0595  -4.0590  -4.0590  -4.0580
    -4.0557  -4.0525  -4.0525  -4.0522  -4.0522  -4.0450  -4.0425  -4.0337
    -4.0337  -4.0215  -4.0215  -4.0149  -4.0149  -4.0144  -3.9765  -3.9631
    -3.9631  -3.9541  -3.9540  -3.9466  -3.9466  -3.9127  -3.9127  -3.9113
    -3.9082  -3.9082  -3.9056  -3.9055  -3.8839  -3.8826  -3.8776  -3.8763
     0.9750   1.2174   1.7007   1.7007   1.9374   1.9374   2.1859   2.1859
     2.4038   2.4173   2.4173   2.6242   2.6751   2.8673   2.8676   3.0665
     3.0670   3.3070   3.3410   3.3410   3.3783   3.4316   3.7711   3.7712
     3.9983   3.9984   4.1692   4.1692   4.1868   4.3530   4.3531   4.3740
     4.3743   4.5132   4.5137   4.6835   4.7514   4.7517   4.8778   4.9046
     4.9047   5.0317   5.0320   5.0632   5.0632   5.2189   5.2190   5.3315
     5.3316   5.3562   5.6046   5.6046   5.7352   5.7353   5.7461   5.7462
     5.8793   5.8796   5.9157   5.9653   5.9654   6.0104   6.0105   6.0215
     6.1931   6.1931   6.3158   6.3323   6.3323   6.4914   6.5074   6.5076
     6.6188   6.6310   6.6310   6.6614   6.6615   6.6961   6.6961   6.7480
     6.7531   6.7628   6.7751   6.7801   6.7830   6.7831   6.7908   6.7910
     6.7935   6.7937   6.8003   6.8008   6.8055   6.8057   6.8145   6.8294
     6.8410   6.8410   6.8460   6.8588   6.8590   6.8594   6.8599   6.8660
     6.9012   6.9013   6.9016   6.9045   6.9048   6.9107   6.9110   6.9137
     6.9140   6.9241   6.9255   6.9476   6.9480   6.9492   6.9495   6.9638
     6.9679   6.9739   6.9741   6.9852   6.9914   6.9914   7.0477   7.0480
     7.0494   7.0494   7.0520   7.0626   7.0721   7.0722   7.0785   7.0788
     7.0846   7.0847   7.0979   7.0979   7.1060   7.1061   7.1195   7.1201
     7.1239   7.1240   7.1279   7.1284   7.1293   7.1293   7.1296   7.1298
     7.1367   7.1435   7.1439   7.1480   7.1510   7.1567   7.1605   7.1621
     7.1623   7.1682   7.1683   7.1751   7.1753   7.1786   7.1801   7.1804
     7.1810   7.1810   7.1857   7.1890   7.1968   7.1976   7.1986   7.1992
     7.1997   7.1998   7.1999   7.2017   7.2019   7.2021   7.2027   7.2030
     7.2035   7.2037   7.2037   7.2041   7.2043   7.2063   7.2064   7.2067
     7.2252   7.2418   7.2420   7.2539   7.2545   7.2850   7.2854   7.2932
     7.3151   7.3153   7.3333   7.3334   7.3530   7.3660   7.3662   7.3785
     7.3786   7.4326   7.4328   7.5421   7.5423   7.5449   7.5546   7.5870
     7.5871   7.6061   7.6062   7.6655   7.6658   7.8353   7.8355   7.8724
     7.8724   7.9400   7.9404   8.1573   8.2939   8.2941   8.3751   8.3753
     8.3798   8.3802   8.4553   8.5448   8.5448   8.6128   8.6131   8.6234
     8.6387   8.6388   8.7743   8.7744   8.7790   8.7942   8.7943   8.8274
     9.0104   9.0108   9.0816   9.0818   9.1772   9.1777   9.2003   9.4079
     9.4079   9.5109   9.6257   9.6354   9.6354   9.7634   9.7639   9.7857
     9.8804   9.9395   9.9398   9.9610   9.9725   9.9729  10.2067  10.2068

          k =-0.3750-0.1250-0.1250 (111627 PWs)   bands (ev):

    -4.5301  -4.5246  -4.5055  -4.5024  -4.4978  -4.4974  -4.4968  -4.4898
    -4.4894  -4.4738  -4.4738  -4.4685  -4.4685  -4.4582  -4.4580  -4.4544
    -4.4408  -4.4407  -4.4330  -4.4255  -4.4202  -4.4202  -4.4165  -4.4159
    -4.4137  -4.4091  -4.4084  -4.4002  -4.4001  -4.3976  -4.3975  -4.3949
    -4.3910  -4.3910  -4.3898  -4.3893  -4.3891  -4.3891  -4.3874  -4.3801
    -4.3796  -4.3769  -4.3760  -4.3753  -4.3751  -4.3734  -4.3712  -4.3711
    -4.3688  -4.3683  -4.3636  -4.3635  -4.3578  -4.3528  -4.3528  -4.3481
    -4.3473  -4.3463  -4.3461  -4.3436  -4.3435  -4.3429  -4.3421  -4.3420
    -4.3416  -4.3410  -4.3403  -4.3393  -4.3393  -4.3373  -4.3371  -4.3264
    -4.3256  -4.3214  -4.3209  -4.3208  -4.3164  -4.3160  -4.3157  -4.3124
    -4.3116  -4.3091  -4.3083  -4.3046  -4.3044  -4.3014  -4.2989  -4.2969
    -4.2967  -4.2967  -4.2949  -4.2935  -4.2933  -4.2916  -4.2879  -4.2873
    -4.2866  -4.2866  -4.2856  -4.2793  -4.2788  -4.2784  -4.2783  -4.2783
    -4.2781  -4.2775  -4.2764  -4.2736  -4.2712  -4.2710  -4.2705  -4.2697
    -4.2695  -4.2694  -4.2689  -4.2666  -4.2665  -4.2573  -4.2573  -4.2556
    -4.2554  -4.2554  -4.2520  -4.2520  -4.2502  -4.2502  -4.2481  -4.2481
    -4.2432  -4.2410  -4.2403  -4.2401  -4.2399  -4.2365  -4.2358  -4.2356
    -4.2348  -4.2331  -4.2331  -4.2310  -4.2305  -4.2257  -4.2257  -4.2218
    -4.2218  -4.2206  -4.2206  -4.2202  -4.2202  -4.2167  -4.2167  -4.2164
    -4.2164  -4.2152  -4.2152  -4.2104  -4.2103  -4.2078  -4.2077  -4.2062
    -4.2061  -4.2043  -4.2043  -4.2034  -4.2030  -4.2021  -4.1970  -4.1970
    -4.1955  -4.1955  -4.1895  -4.1894  -4.1880  -4.1880  -4.1873  -4.1870
    -4.1868  -4.1865  -4.1865  -4.1859  -4.1834  -4.1833  -4.1828  -4.1812
    -4.1810  -4.1809  -4.1794  -4.1794  -4.1764  -4.1764  -4.1762  -4.1751
    -4.1751  -4.1739  -4.1739  -4.1683  -4.1677  -4.1677  -4.1640  -4.1639
    -4.1632  -4.1632  -4.1631  -4.1617  -4.1617  -4.1614  -4.1612  -4.1592
    -4.1590  -4.1582  -4.1580  -4.1568  -4.1568  -4.1550  -4.1549  -4.1534
    -4.1531  -4.1504  -4.1504  -4.1475  -4.1471  -4.1454  -4.1453  -4.1451
    -4.1439  -4.1438  -4.1435  -4.1418  -4.1411  -4.1411  -4.1410  -4.1397
    -4.1389  -4.1387  -4.1354  -4.1347  -4.1316  -4.1316  -4.1294  -4.1293
    -4.1255  -4.1253  -4.1250  -4.1218  -4.1202  -4.1181  -4.1181  -4.1147
    -4.1139  -4.1134  -4.1131  -4.1126  -4.1121  -4.1099  -4.1097  -4.1031
    -4.1025  -4.1023  -4.1017  -4.0992  -4.0985  -4.0961  -4.0959  -4.0898
    -4.0897  -4.0883  -4.0883  -4.0805  -4.0804  -4.0792  -4.0792  -4.0777
    -4.0771  -4.0741  -4.0739  -4.0733  -4.0723  -4.0723  -4.0713  -4.0701
    -4.0700  -4.0647  -4.0642  -4.0596  -4.0596  -4.0590  -4.0589  -4.0580
    -4.0557  -4.0529  -4.0522  -4.0522  -4.0521  -4.0450  -4.0425  -4.0337
    -4.0337  -4.0219  -4.0212  -4.0153  -4.0146  -4.0144  -3.9765  -3.9631
    -3.9631  -3.9542  -3.9539  -3.9467  -3.9466  -3.9127  -3.9127  -3.9113
    -3.9084  -3.9079  -3.9058  -3.9053  -3.8839  -3.8826  -3.8776  -3.8763
     0.9750   1.2174   1.7003   1.7011   1.9370   1.9378   2.1855   2.1863
     2.4039   2.4169   2.4178   2.6243   2.6751   2.8672   2.8675   3.0662
     3.0667   3.3073   3.3406   3.3413   3.3783   3.4321   3.7708   3.7717
     3.9979   3.9986   4.1691   4.1692   4.1863   4.3529   4.3530   4.3738
     4.3750   4.5135   4.5140   4.6832   4.7511   4.7515   4.8776   4.9042
     4.9048   5.0319   5.0322   5.0629   5.0635   5.2187   5.2193   5.3316
     5.3317   5.3561   5.6047   5.6047   5.7351   5.7352   5.7458   5.7463
     5.8792   5.8796   5.9158   5.9652   5.9656   6.0103   6.0107   6.0215
     6.1930   6.1932   6.3157   6.3321   6.3323   6.4914   6.5073   6.5076
     6.6188   6.6309   6.6313   6.6612   6.6616   6.6959   6.6963   6.7481
     6.7531   6.7629   6.7752   6.7800   6.7830   6.7831   6.7909   6.7909
     6.7934   6.7938   6.8002   6.8007   6.8055   6.8056   6.8147   6.8294
     6.8409   6.8411   6.8461   6.8588   6.8591   6.8592   6.8597   6.8661
     6.9011   6.9013   6.9016   6.9045   6.9047   6.9107   6.9111   6.9137
     6.9140   6.9241   6.9255   6.9476   6.9480   6.9492   6.9495   6.9639
     6.9679   6.9739   6.9742   6.9852   6.9913   6.9914   7.0478   7.0480
     7.0493   7.0494   7.0520   7.0625   7.0721   7.0721   7.0785   7.0788
     7.0846   7.0847   7.0977   7.0980   7.1060   7.1062   7.1195   7.1201
     7.1239   7.1240   7.1278   7.1283   7.1292   7.1294   7.1295   7.1299
     7.1366   7.1435   7.1440   7.1479   7.1510   7.1566   7.1605   7.1621
     7.1623   7.1682   7.1683   7.1750   7.1754   7.1786   7.1801   7.1804
     7.1810   7.1810   7.1857   7.1890   7.1969   7.1975   7.1986   7.1993
     7.1997   7.1998   7.1999   7.2017   7.2020   7.2020   7.2027   7.2030
     7.2034   7.2037   7.2038   7.2042   7.2042   7.2064   7.2064   7.2067
     7.2252   7.2419   7.2421   7.2539   7.2546   7.2850   7.2855   7.2932
     7.3152   7.3152   7.3333   7.3334   7.3529   7.3661   7.3664   7.3785
     7.3785   7.4326   7.4328   7.5422   7.5423   7.5449   7.5545   7.5870
     7.5872   7.6060   7.6060   7.6656   7.6658   7.8352   7.8356   7.8723
     7.8723   7.9399   7.9403   8.1573   8.2940   8.2941   8.3751   8.3754
     8.3796   8.3800   8.4551   8.5449   8.5449   8.6130   8.6132   8.6228
     8.6383   8.6389   8.7740   8.7748   8.7787   8.7943   8.7944   8.8275
     9.0109   9.0114   9.0819   9.0820   9.1772   9.1775   9.2004   9.4075
     9.4083   9.5104   9.6250   9.6350   9.6357   9.7634   9.7636   9.7858
     9.8804   9.9393   9.9394   9.9612   9.9731   9.9736  10.2065  10.2067

          k = 0.3750 0.1250-0.3750 (111665 PWs)   bands (ev):

    -4.5151  -4.5057  -4.5053  -4.4897  -4.4831  -4.4825  -4.4822  -4.4768
    -4.4768  -4.4748  -4.4674  -4.4522  -4.4499  -4.4499  -4.4441  -4.4437
    -4.4424  -4.4422  -4.4409  -4.4406  -4.4320  -4.4317  -4.4164  -4.4163
    -4.4161  -4.4158  -4.4093  -4.4093  -4.4072  -4.4039  -4.3942  -4.3876
    -4.3871  -4.3870  -4.3856  -4.3855  -4.3849  -4.3808  -4.3807  -4.3801
    -4.3801  -4.3792  -4.3792  -4.3770  -4.3766  -4.3752  -4.3748  -4.3734
    -4.3719  -4.3686  -4.3655  -4.3608  -4.3584  -4.3584  -4.3573  -4.3569
    -4.3568  -4.3565  -4.3544  -4.3506  -4.3503  -4.3496  -4.3496  -4.3453
    -4.3445  -4.3443  -4.3438  -4.3427  -4.3410  -4.3406  -4.3353  -4.3352
    -4.3319  -4.3317  -4.3316  -4.3301  -4.3295  -4.3293  -4.3283  -4.3280
    -4.3279  -4.3278  -4.3214  -4.3200  -4.3198  -4.3093  -4.3092  -4.3091
    -4.3090  -4.3057  -4.3056  -4.3028  -4.2994  -4.2994  -4.2976  -4.2943
    -4.2939  -4.2927  -4.2926  -4.2896  -4.2896  -4.2789  -4.2757  -4.2757
    -4.2715  -4.2714  -4.2713  -4.2711  -4.2707  -4.2694  -4.2694  -4.2603
    -4.2602  -4.2594  -4.2592  -4.2587  -4.2560  -4.2553  -4.2544  -4.2544
    -4.2523  -4.2495  -4.2495  -4.2492  -4.2491  -4.2438  -4.2436  -4.2425
    -4.2393  -4.2391  -4.2390  -4.2386  -4.2383  -4.2367  -4.2367  -4.2352
    -4.2351  -4.2350  -4.2321  -4.2321  -4.2288  -4.2284  -4.2249  -4.2246
    -4.2195  -4.2191  -4.2190  -4.2154  -4.2153  -4.2128  -4.2126  -4.2118
    -4.2089  -4.2089  -4.2087  -4.2087  -4.2080  -4.2079  -4.2051  -4.2050
    -4.2037  -4.2036  -4.2014  -4.2014  -4.2000  -4.2000  -4.1986  -4.1985
    -4.1966  -4.1965  -4.1965  -4.1930  -4.1929  -4.1886  -4.1885  -4.1868
    -4.1866  -4.1859  -4.1859  -4.1850  -4.1850  -4.1849  -4.1846  -4.1833
    -4.1829  -4.1826  -4.1826  -4.1823  -4.1790  -4.1789  -4.1778  -4.1775
    -4.1775  -4.1774  -4.1772  -4.1749  -4.1748  -4.1706  -4.1703  -4.1694
    -4.1693  -4.1685  -4.1668  -4.1668  -4.1646  -4.1646  -4.1606  -4.1592
    -4.1591  -4.1588  -4.1583  -4.1583  -4.1582  -4.1579  -4.1578  -4.1549
    -4.1539  -4.1538  -4.1538  -4.1536  -4.1536  -4.1534  -4.1533  -4.1529
    -4.1528  -4.1493  -4.1478  -4.1473  -4.1473  -4.1336  -4.1336  -4.1322
    -4.1322  -4.1296  -4.1267  -4.1260  -4.1259  -4.1253  -4.1233  -4.1229
    -4.1204  -4.1162  -4.1161  -4.1141  -4.1140  -4.1133  -4.1125  -4.1051
    -4.1025  -4.1025  -4.1022  -4.1022  -4.1020  -4.1020  -4.0998  -4.0996
    -4.0952  -4.0951  -4.0946  -4.0926  -4.0926  -4.0915  -4.0910  -4.0906
    -4.0901  -4.0886  -4.0885  -4.0876  -4.0853  -4.0836  -4.0833  -4.0822
    -4.0814  -4.0762  -4.0762  -4.0738  -4.0737  -4.0704  -4.0697  -4.0691
    -4.0684  -4.0665  -4.0665  -4.0633  -4.0560  -4.0559  -4.0536  -4.0536
    -4.0495  -4.0495  -4.0437  -4.0436  -4.0411  -4.0334  -4.0301  -4.0237
    -3.9912  -3.9907  -3.9876  -3.9872  -3.9833  -3.9828  -3.9778  -3.9774
    -3.9617  -3.9614  -3.9586  -3.9586  -3.9407  -3.9358  -3.9336  -3.9315
    -3.9289  -3.9119  -3.9119  -3.9104  -3.9101  -3.9026  -3.9022  -3.8948
     1.0954   1.3368   1.3373   1.5769   1.8181   2.0525   2.0530   2.2826
     2.3003   2.5282   2.5288   2.7483   2.7868   2.7873   3.0096   3.0105
     3.4297   3.4303   3.4833   3.4842   3.5575   3.5581   3.6923   3.6928
     3.8006   3.8009   4.0382   4.0389   4.2590   4.2664   4.2802   4.2808
     4.4268   4.4274   4.4498   4.4506   4.6163   4.6170   4.6707   4.7725
     4.7728   4.8870   4.8877   4.9645   5.3001   5.3138   5.4196   5.4200
     5.4256   5.4262   5.5575   5.5582   5.7025   5.7031   5.7331   5.7336
     5.7872   5.8479   5.8511   5.8514   6.0073   6.0525   6.0529   6.1856
     6.2674   6.3726   6.3730   6.3821   6.3826   6.4996   6.4999   6.5224
     6.6778   6.6781   6.7196   6.7198   6.7579   6.7749   6.7750   6.7759
     6.7760   6.7762   6.7764   6.7775   6.7838   6.8077   6.8078   6.8182
     6.8186   6.8251   6.8252   6.8290   6.8292   6.8357   6.8359   6.8415
     6.8511   6.8532   6.8534   6.8624   6.8643   6.8704   6.8711   6.8792
     6.8895   6.8909   6.8910   6.8968   6.9189   6.9191   6.9269   6.9272
     6.9367   6.9367   6.9443   6.9445   6.9590   6.9593   6.9715   6.9717
     6.9729   6.9733   6.9733   6.9915   6.9916   7.0274   7.0275   7.0403
     7.0403   7.0480   7.0481   7.0516   7.0520   7.0544   7.0545   7.0592
     7.0727   7.0729   7.0731   7.0734   7.0883   7.0886   7.0898   7.0902
     7.0955   7.1044   7.1078   7.1229   7.1230   7.1250   7.1330   7.1332
     7.1370   7.1483   7.1486   7.1522   7.1588   7.1610   7.1612   7.1649
     7.1650   7.1680   7.1701   7.1702   7.1711   7.1807   7.1809   7.1812
     7.1813   7.1836   7.1913   7.1913   7.1956   7.1956   7.1972   7.1980
     7.1983   7.1986   7.1990   7.1992   7.1995   7.2003   7.2004   7.2006
     7.2008   7.2016   7.2019   7.2031   7.2035   7.2042   7.2043   7.2048
     7.2050   7.2123   7.2123   7.2426   7.2426   7.2489   7.2491   7.2628
     7.2629   7.2692   7.2693   7.3161   7.3264   7.3264   7.3402   7.4267
     7.4270   7.5345   7.5508   7.5509   7.5914   7.5918   7.6010   7.6013
     7.6074   7.6925   7.7697   7.7700   7.8337   7.8338   7.8770   7.8959
     7.8962   7.9413   7.9415   8.0472   8.0474   8.1106   8.1110   8.2457
     8.2825   8.2829   8.4214   8.4219   8.5040   8.5045   8.6353   8.6356
     8.7207   8.7565   8.7568   8.9692   8.9722   8.9727   9.0060   9.0063
     9.1710   9.1715   9.1875   9.1878   9.2307   9.2312   9.2597   9.2600
     9.4129   9.4133   9.5975   9.6000   9.6002   9.6131   9.7838   9.7841
     9.7915   9.8166   9.9619  10.0454  10.0461  10.0477  10.1161  10.1165

          k =-0.3750-0.1250-0.3750 (111665 PWs)   bands (ev):

    -4.5151  -4.5057  -4.5053  -4.4897  -4.4831  -4.4825  -4.4822  -4.4768
    -4.4768  -4.4748  -4.4674  -4.4522  -4.4499  -4.4499  -4.4441  -4.4437
    -4.4424  -4.4422  -4.4408  -4.4406  -4.4320  -4.4317  -4.4164  -4.4163
    -4.4161  -4.4158  -4.4093  -4.4093  -4.4072  -4.4039  -4.3942  -4.3876
    -4.3871  -4.3870  -4.3856  -4.3855  -4.3850  -4.3808  -4.3807  -4.3801
    -4.3801  -4.3792  -4.3792  -4.3770  -4.3766  -4.3753  -4.3749  -4.3734
    -4.3719  -4.3686  -4.3655  -4.3608  -4.3584  -4.3584  -4.3573  -4.3569
    -4.3568  -4.3566  -4.3543  -4.3506  -4.3503  -4.3496  -4.3495  -4.3453
    -4.3445  -4.3443  -4.3438  -4.3427  -4.3410  -4.3406  -4.3353  -4.3353
    -4.3319  -4.3317  -4.3317  -4.3302  -4.3295  -4.3294  -4.3283  -4.3279
    -4.3278  -4.3278  -4.3213  -4.3200  -4.3198  -4.3093  -4.3092  -4.3091
    -4.3091  -4.3057  -4.3056  -4.3028  -4.2994  -4.2994  -4.2975  -4.2943
    -4.2939  -4.2926  -4.2925  -4.2897  -4.2896  -4.2790  -4.2757  -4.2757
    -4.2715  -4.2714  -4.2713  -4.2711  -4.2707  -4.2694  -4.2693  -4.2603
    -4.2602  -4.2594  -4.2592  -4.2588  -4.2560  -4.2552  -4.2544  -4.2544
    -4.2523  -4.2495  -4.2495  -4.2492  -4.2491  -4.2438  -4.2437  -4.2425
    -4.2393  -4.2391  -4.2390  -4.2386  -4.2383  -4.2367  -4.2367  -4.2352
    -4.2351  -4.2350  -4.2321  -4.2321  -4.2288  -4.2285  -4.2249  -4.2246
    -4.2195  -4.2191  -4.2190  -4.2154  -4.2153  -4.2128  -4.2126  -4.2118
    -4.2089  -4.2089  -4.2087  -4.2087  -4.2080  -4.2079  -4.2051  -4.2050
    -4.2037  -4.2036  -4.2014  -4.2014  -4.2000  -4.1999  -4.1986  -4.1985
    -4.1966  -4.1966  -4.1964  -4.1930  -4.1929  -4.1886  -4.1885  -4.1868
    -4.1866  -4.1859  -4.1858  -4.1850  -4.1850  -4.1850  -4.1846  -4.1834
    -4.1829  -4.1826  -4.1826  -4.1822  -4.1790  -4.1789  -4.1779  -4.1775
    -4.1775  -4.1773  -4.1772  -4.1748  -4.1748  -4.1706  -4.1703  -4.1694
    -4.1693  -4.1685  -4.1669  -4.1668  -4.1646  -4.1646  -4.1606  -4.1592
    -4.1590  -4.1588  -4.1583  -4.1582  -4.1581  -4.1579  -4.1578  -4.1548
    -4.1539  -4.1538  -4.1537  -4.1536  -4.1536  -4.1535  -4.1534  -4.1528
    -4.1528  -4.1493  -4.1478  -4.1473  -4.1473  -4.1337  -4.1336  -4.1322
    -4.1321  -4.1296  -4.1267  -4.1261  -4.1259  -4.1253  -4.1233  -4.1229
    -4.1205  -4.1161  -4.1160  -4.1141  -4.1140  -4.1133  -4.1125  -4.1051
    -4.1025  -4.1025  -4.1023  -4.1022  -4.1020  -4.1020  -4.0998  -4.0996
    -4.0952  -4.0951  -4.0946  -4.0926  -4.0926  -4.0915  -4.0910  -4.0906
    -4.0901  -4.0886  -4.0885  -4.0876  -4.0853  -4.0836  -4.0832  -4.0823
    -4.0814  -4.0762  -4.0762  -4.0738  -4.0737  -4.0704  -4.0697  -4.0691
    -4.0684  -4.0665  -4.0665  -4.0633  -4.0560  -4.0559  -4.0536  -4.0536
    -4.0495  -4.0495  -4.0438  -4.0436  -4.0411  -4.0334  -4.0301  -4.0237
    -3.9912  -3.9907  -3.9876  -3.9872  -3.9833  -3.9828  -3.9778  -3.9774
    -3.9617  -3.9614  -3.9586  -3.9586  -3.9407  -3.9358  -3.9336  -3.9315
    -3.9289  -3.9119  -3.9119  -3.9104  -3.9101  -3.9026  -3.9022  -3.8948
     1.0954   1.3368   1.3373   1.5769   1.8181   2.0525   2.0530   2.2827
     2.3004   2.5282   2.5287   2.7482   2.7868   2.7874   3.0096   3.0105
     3.4296   3.4300   3.4833   3.4842   3.5574   3.5581   3.6923   3.6927
     3.8008   3.8016   4.0382   4.0389   4.2589   4.2668   4.2802   4.2809
     4.4268   4.4274   4.4497   4.4499   4.6163   4.6169   4.6703   4.7726
     4.7731   4.8870   4.8877   4.9647   5.3000   5.3140   5.4196   5.4200
     5.4256   5.4262   5.5575   5.5582   5.7025   5.7031   5.7332   5.7337
     5.7871   5.8479   5.8511   5.8514   6.0073   6.0525   6.0528   6.1857
     6.2674   6.3726   6.3730   6.3820   6.3826   6.4996   6.4999   6.5224
[...]
    -4.1775  -4.1774  -4.1772  -4.1749  -4.1748  -4.1704  -4.1704  -4.1693
    -4.1693  -4.1685  -4.1668  -4.1668  -4.1646  -4.1646  -4.1607  -4.1591
    -4.1589  -4.1589  -4.1583  -4.1583  -4.1582  -4.1579  -4.1579  -4.1548
    -4.1539  -4.1539  -4.1538  -4.1536  -4.1536  -4.1534  -4.1533  -4.1529
    -4.1528  -4.1493  -4.1477  -4.1473  -4.1473  -4.1337  -4.1336  -4.1322
    -4.1322  -4.1297  -4.1266  -4.1260  -4.1260  -4.1253  -4.1232  -4.1231
    -4.1205  -4.1161  -4.1160  -4.1141  -4.1140  -4.1133  -4.1124  -4.1051
    -4.1024  -4.1023  -4.1022  -4.1022  -4.1022  -4.1021  -4.0997  -4.0997
    -4.0951  -4.0951  -4.0946  -4.0926  -4.0926  -4.0913  -4.0912  -4.0903
    -4.0903  -4.0886  -4.0886  -4.0875  -4.0854  -4.0834  -4.0833  -4.0823
    -4.0814  -4.0762  -4.0762  -4.0738  -4.0738  -4.0704  -4.0697  -4.0691
    -4.0685  -4.0665  -4.0665  -4.0633  -4.0560  -4.0560  -4.0536  -4.0536
    -4.0495  -4.0495  -4.0437  -4.0437  -4.0411  -4.0334  -4.0301  -4.0237
    -3.9910  -3.9909  -3.9874  -3.9874  -3.9830  -3.9830  -3.9776  -3.9776
    -3.9616  -3.9615  -3.9586  -3.9586  -3.9407  -3.9358  -3.9335  -3.9315
    -3.9289  -3.9119  -3.9119  -3.9103  -3.9103  -3.9024  -3.9023  -3.8948
     1.0954   1.3370   1.3371   1.5769   1.8181   2.0527   2.0528   2.2826
     2.3003   2.5285   2.5286   2.7482   2.7870   2.7871   3.0100   3.0102
     3.4297   3.4299   3.4837   3.4839   3.5576   3.5585   3.6924   3.6925
     3.8005   3.8010   4.0384   4.0392   4.2589   4.2664   4.2798   4.2807
     4.4271   4.4272   4.4499   4.4505   4.6160   4.6167   4.6705   4.7727
     4.7730   4.8873   4.8877   4.9646   5.3001   5.3136   5.4198   5.4199
     5.4258   5.4259   5.5577   5.5579   5.7027   5.7028   5.7334   5.7335
     5.7872   5.8482   5.8512   5.8513   6.0073   6.0521   6.0527   6.1857
     6.2675   6.3727   6.3729   6.3823   6.3823   6.4998   6.4998   6.5224
     6.6779   6.6780   6.7196   6.7199   6.7579   6.7748   6.7752   6.7759
     6.7760   6.7763   6.7764   6.7774   6.7837   6.8076   6.8078   6.8182
     6.8186   6.8251   6.8252   6.8290   6.8293   6.8357   6.8359   6.8415
     6.8511   6.8531   6.8535   6.8624   6.8643   6.8704   6.8710   6.8792
     6.8895   6.8908   6.8911   6.8968   6.9189   6.9192   6.9269   6.9273
     6.9364   6.9370   6.9443   6.9445   6.9591   6.9592   6.9716   6.9717
     6.9731   6.9733   6.9733   6.9914   6.9916   7.0274   7.0275   7.0401
     7.0405   7.0480   7.0482   7.0515   7.0519   7.0543   7.0545   7.0592
     7.0727   7.0730   7.0731   7.0732   7.0883   7.0887   7.0898   7.0901
     7.0955   7.1044   7.1079   7.1228   7.1231   7.1250   7.1330   7.1332
     7.1370   7.1483   7.1485   7.1522   7.1588   7.1610   7.1613   7.1649
     7.1651   7.1679   7.1701   7.1703   7.1711   7.1807   7.1808   7.1812
     7.1815   7.1836   7.1909   7.1916   7.1952   7.1959   7.1972   7.1980
     7.1984   7.1988   7.1989   7.1991   7.1996   7.2000   7.2005   7.2007
     7.2007   7.2016   7.2019   7.2032   7.2036   7.2040   7.2045   7.2048
     7.2051   7.2121   7.2124   7.2426   7.2426   7.2490   7.2491   7.2628
     7.2628   7.2692   7.2693   7.3160   7.3264   7.3266   7.3403   7.4267
     7.4269   7.5345   7.5507   7.5510   7.5912   7.5916   7.6011   7.6011
     7.6076   7.6925   7.7697   7.7700   7.8336   7.8338   7.8769   7.8958
     7.8966   7.9412   7.9420   8.0472   8.0473   8.1107   8.1109   8.2457
     8.2823   8.2826   8.4215   8.4218   8.5041   8.5044   8.6351   8.6354
     8.7207   8.7567   8.7569   8.9691   8.9724   8.9727   9.0057   9.0062
     9.1709   9.1718   9.1873   9.1876   9.2309   9.2315   9.2599   9.2599
     9.4132   9.4133   9.5975   9.6001   9.6002   9.6134   9.7841   9.7843
     9.7917   9.8165   9.9617  10.0454  10.0456  10.0480  10.1158  10.1164

          k = 0.3750 0.3750-0.3750 (111652 PWs)   bands (ev):

    -4.4868  -4.4868  -4.4818  -4.4816  -4.4814  -4.4606  -4.4605  -4.4603
    -4.4552  -4.4552  -4.4551  -4.4540  -4.4538  -4.4538  -4.4349  -4.4348
    -4.4347  -4.4246  -4.4246  -4.4244  -4.4244  -4.4242  -4.4242  -4.4192
    -4.4192  -4.4189  -4.4189  -4.4187  -4.4187  -4.4049  -4.4047  -4.4045
    -4.4003  -4.4002  -4.4002  -4.4001  -4.4000  -4.3936  -4.3935  -4.3935
    -4.3813  -4.3812  -4.3812  -4.3764  -4.3762  -4.3760  -4.3711  -4.3710
    -4.3709  -4.3709  -4.3707  -4.3707  -4.3669  -4.3669  -4.3668  -4.3656
    -4.3647  -4.3646  -4.3645  -4.3644  -4.3643  -4.3643  -4.3546  -4.3545
    -4.3477  -4.3476  -4.3475  -4.3471  -4.3470  -4.3468  -4.3376  -4.3376
    -4.3375  -4.3331  -4.3328  -4.3327  -4.3323  -4.3322  -4.3322  -4.3293
    -4.3292  -4.3290  -4.3286  -4.3284  -4.3283  -4.3260  -4.3253  -4.3253
    -4.3251  -4.3250  -4.3248  -4.3247  -4.3120  -4.3119  -4.3119  -4.3049
    -4.3048  -4.3047  -4.3043  -4.3043  -4.2766  -4.2765  -4.2764  -4.2652
    -4.2651  -4.2649  -4.2649  -4.2646  -4.2645  -4.2507  -4.2505  -4.2504
    -4.2411  -4.2409  -4.2409  -4.2380  -4.2379  -4.2378  -4.2377  -4.2375
    -4.2375  -4.2284  -4.2283  -4.2283  -4.2271  -4.2270  -4.2270  -4.2268
    -4.2268  -4.2267  -4.2266  -4.2266  -4.2265  -4.2225  -4.2225  -4.2224
    -4.2212  -4.2211  -4.2210  -4.2205  -4.2204  -4.2202  -4.2132  -4.2131
    -4.2129  -4.2128  -4.2127  -4.2126  -4.2091  -4.2090  -4.2090  -4.2075
    -4.2075  -4.2074  -4.2026  -4.2025  -4.2024  -4.2024  -4.2023  -4.2023
    -4.2022  -4.2022  -4.2022  -4.2021  -4.2020  -4.2020  -4.2017  -4.2017
    -4.2017  -4.2006  -4.2004  -4.2004  -4.1995  -4.1995  -4.1994  -4.1993
    -4.1992  -4.1992  -4.1987  -4.1987  -4.1985  -4.1943  -4.1942  -4.1942
    -4.1942  -4.1941  -4.1941  -4.1922  -4.1921  -4.1920  -4.1916  -4.1916
    -4.1915  -4.1858  -4.1857  -4.1856  -4.1824  -4.1823  -4.1822  -4.1809
    -4.1808  -4.1805  -4.1796  -4.1796  -4.1795  -4.1794  -4.1792  -4.1790
    -4.1764  -4.1763  -4.1762  -4.1753  -4.1751  -4.1750  -4.1738  -4.1737
    -4.1735  -4.1724  -4.1723  -4.1721  -4.1720  -4.1719  -4.1719  -4.1507
    -4.1507  -4.1504  -4.1504  -4.1502  -4.1502  -4.1330  -4.1329  -4.1328
    -4.1240  -4.1239  -4.1239  -4.1239  -4.1202  -4.1201  -4.1095  -4.1095
    -4.1095  -4.1046  -4.1046  -4.1046  -4.1019  -4.1016  -4.1015  -4.1005
    -4.1003  -4.1001  -4.0992  -4.0991  -4.0988  -4.0987  -4.0984  -4.0983
    -4.0883  -4.0883  -4.0881  -4.0880  -4.0879  -4.0878  -4.0855  -4.0855
    -4.0852  -4.0852  -4.0851  -4.0850  -4.0802  -4.0800  -4.0800  -4.0779
    -4.0778  -4.0778  -4.0674  -4.0674  -4.0673  -4.0648  -4.0647  -4.0647
    -4.0397  -4.0395  -4.0393  -4.0367  -4.0367  -4.0367  -4.0272  -4.0271
    -4.0251  -4.0249  -4.0247  -3.9940  -3.9939  -3.9937  -3.9898  -3.9897
    -3.9895  -3.9894  -3.9892  -3.9891  -3.9871  -3.9870  -3.9868  -3.9868
    -3.9866  -3.9865  -3.9654  -3.9653  -3.9651  -3.9398  -3.9397  -3.9397
    -3.9382  -3.9380  -3.9378  -3.9316  -3.9314  -3.9312  -3.9298  -3.9298
     1.2154   1.4557   1.4561   1.4565   1.6943   1.6946   1.6950   1.9301
     2.8964   2.8968   2.8971   3.1130   3.1136   3.1137   3.1139   3.1142
     3.1152   3.3127   3.3131   3.3139   3.5849   3.5854   3.5861   3.7819
     3.7825   3.7826   3.7827   3.7830   3.7840   3.9221   3.9226   3.9227
     4.5409   4.5411   4.5421   4.6977   4.6985   4.6989   5.0170   5.0176
     5.0177   5.0179   5.0181   5.0188   5.1906   5.1913   5.1913   5.1915
     5.1917   5.1924   5.4459   5.4465   5.4467   5.5946   5.5948   5.5952
     5.6625   5.9849   5.9852   5.9855   6.2249   6.2252   6.2255   6.4076
     6.4484   6.4488   6.4491   6.5567   6.5568   6.5569   6.5570   6.5574
     6.5575   6.6377   6.6380   6.6380   6.7916   6.7917   6.7997   6.7998
     6.8000   6.8000   6.8003   6.8006   6.8079   6.8081   6.8083   6.8096
     6.8098   6.8100   6.8180   6.8180   6.8182   6.8194   6.8195   6.8199
     6.8245   6.8245   6.8251   6.8592   6.8593   6.8596   6.8596   6.8598
     6.9400   6.9402   6.9404   6.9534   6.9535   6.9536   6.9543   6.9544
     6.9544   6.9546   6.9546   6.9549   6.9743   6.9744   6.9744   6.9746
     6.9747   6.9750   6.9972   6.9973   6.9974   7.0270   7.0272   7.0274
     7.0341   7.0342   7.0346   7.0572   7.0574   7.0574   7.0577   7.0577
     7.0578   7.0847   7.0848   7.0850   7.0998   7.1001   7.1003   7.1184
     7.1184   7.1185   7.1187   7.1187   7.1188   7.1563   7.1565   7.1565
     7.1639   7.1641   7.1642   7.1662   7.1663   7.1664   7.1685   7.1688
     7.1688   7.1818   7.1818   7.1871   7.1873   7.1873   7.1876   7.1877
     7.1923   7.1925   7.1926   7.1932   7.1935   7.1935   7.1949   7.1952
     7.1952   7.1964   7.1966   7.1966   7.1967   7.1968   7.1970   7.2004
     7.2007   7.2008   7.2028   7.2028   7.2029   7.2030   7.2031   7.2032
     7.2052   7.2053   7.2053   7.2076   7.2078   7.2079   7.2080   7.2080
     7.2082   7.2376   7.2376   7.2377   7.2563   7.2564   7.2565   7.3172
     7.3172   7.3173   7.3176   7.3176   7.3178   7.5300   7.5301   7.5307
     7.8034   7.9395   7.9396   7.9397   7.9397   7.9399   7.9404   7.9596
     7.9597   7.9600   8.0904   8.0906   8.0909   8.1988   8.1989   8.1992
     8.6122   8.6123   8.6127   8.6416   8.6421   8.6424   8.6424   8.6426
     8.6430   8.6853   8.6855   8.6858   8.9748   8.9749   8.9757   9.1504
     9.1508   9.1509   9.1514   9.1514   9.1515   9.1517   9.1519   9.1526
     9.2270   9.4909   9.4912   9.4913   9.5420   9.5420   9.5422   9.5425
     9.5425   9.5433   9.7488   9.7490   9.7492  10.0407  10.0408  10.0409

     highest occupied level (ev):    10.4443

!    total energy              =  -12903.96945799 Ry
     estimated scf accuracy    <       0.00000009 Ry

     The total energy is the sum of the following terms:
     one-electron contribution =   -3996.75250578 Ry
     hartree contribution      =    3221.79563823 Ry
     xc contribution           =   -4386.34449531 Ry
     ewald contribution        =   -7742.66809513 Ry

     convergence has been achieved in  32 iterations

     Forces acting on atoms (cartesian axes, Ry/au):

     atom    1 type  1   force =     0.00000210    0.00003334    0.00003334
     atom    2 type  1   force =     0.00016953   -0.00016672   -0.00016672
     atom    3 type  1   force =    -0.00000786   -0.00003108   -0.00005186
     atom    4 type  1   force =     0.00001226   -0.00003627   -0.00005903
     atom    5 type  1   force =    -0.00000786   -0.00005186   -0.00003108
     atom    6 type  1   force =     0.00001226   -0.00005903   -0.00003627
     atom    7 type  1   force =    -0.00003948    0.00005868    0.00005868
     atom    8 type  1   force =     0.00003344    0.00006171    0.00006171
     atom    9 type  1   force =     0.00016098    0.00024901   -0.00024901
     atom   10 type  1   force =     0.00001011    0.00002259   -0.00002259
     atom   11 type  1   force =    -0.00003029   -0.00003715    0.00002585
     atom   12 type  1   force =     0.00004214   -0.00000131    0.00005891
     atom   13 type  1   force =    -0.00003029   -0.00002585    0.00003715
     atom   14 type  1   force =     0.00004214   -0.00005891    0.00000131
     atom   15 type  1   force =    -0.00003000    0.00003429   -0.00003429
     atom   16 type  1   force =     0.00003416    0.00006174   -0.00006174
     atom   17 type  1   force =     0.00000210   -0.00003334   -0.00003334
     atom   18 type  1   force =     0.00016953    0.00016672    0.00016672
     atom   19 type  1   force =    -0.00000786    0.00003108    0.00005186
     atom   20 type  1   force =     0.00001226    0.00003627    0.00005903
     atom   21 type  1   force =    -0.00000786    0.00005186    0.00003108
     atom   22 type  1   force =     0.00001226    0.00005903    0.00003627
     atom   23 type  1   force =    -0.00003948   -0.00005868   -0.00005868
     atom   24 type  1   force =     0.00003344   -0.00006171   -0.00006171
     atom   25 type  1   force =     0.00016098   -0.00024901    0.00024901
     atom   26 type  1   force =     0.00001011   -0.00002259    0.00002259
     atom   27 type  1   force =    -0.00003029    0.00003715   -0.00002585
     atom   28 type  1   force =     0.00004214    0.00000131   -0.00005891
     atom   29 type  1   force =    -0.00003029    0.00002585   -0.00003715
     atom   30 type  1   force =     0.00004214    0.00005891   -0.00000131
     atom   31 type  1   force =    -0.00003000   -0.00003429    0.00003429
     atom   32 type  1   force =     0.00003416   -0.00006174    0.00006174
     atom   33 type  2   force =    -0.00148677    0.00000000    0.00000000
     atom   34 type  2   force =     0.00004777    0.00000000    0.00000000
     atom   35 type  2   force =    -0.00000809    0.00000000    0.00000000
     atom   36 type  2   force =     0.00001144    0.00000000    0.00000000
     atom   37 type  2   force =    -0.00000809    0.00000000    0.00000000
     atom   38 type  2   force =     0.00001144    0.00000000    0.00000000
     atom   39 type  2   force =     0.00001865    0.00000000    0.00000000
     atom   40 type  2   force =     0.00014155    0.00000000    0.00000000
     atom   41 type  2   force =     0.00006456   -0.00003627   -0.00007058
     atom   42 type  2   force =     0.00005888    0.00003165    0.00000183
     atom   43 type  2   force =     0.00001461   -0.00004718    0.00003738
     atom   44 type  2   force =     0.00006322    0.00002257    0.00004432
     atom   45 type  2   force =     0.00006456    0.00003627    0.00007058
     atom   46 type  2   force =     0.00005888   -0.00003165   -0.00000183
     atom   47 type  2   force =     0.00001461    0.00004718   -0.00003738
     atom   48 type  2   force =     0.00006322   -0.00002257   -0.00004432
     atom   49 type  2   force =     0.00009012   -0.00004353   -0.00004353
     atom   50 type  2   force =     0.00009112    0.00006347    0.00006347
     atom   51 type  2   force =     0.00000148   -0.00000061    0.00000061
     atom   52 type  2   force =    -0.00000112    0.00000736   -0.00000736
     atom   53 type  2   force =     0.00000148    0.00000061   -0.00000061
     atom   54 type  2   force =    -0.00000112   -0.00000736    0.00000736
     atom   55 type  2   force =     0.00009012    0.00004353    0.00004353
     atom   56 type  2   force =     0.00009112   -0.00006347   -0.00006347
     atom   57 type  2   force =     0.00006456   -0.00007058   -0.00003627
     atom   58 type  2   force =     0.00005888    0.00000183    0.00003165
     atom   59 type  2   force =     0.00006456    0.00007058    0.00003627
     atom   60 type  2   force =     0.00005888   -0.00000183   -0.00003165
     atom   61 type  2   force =     0.00001461    0.00003738   -0.00004718
     atom   62 type  2   force =     0.00006322    0.00004432    0.00002257
     atom   63 type  2   force =     0.00001461   -0.00003738    0.00004718
     atom   64 type  2   force =     0.00006322   -0.00004432   -0.00002257
     atom   65 type  2   force =    -0.00010168    0.00007747    0.00007747
     atom   66 type  2   force =    -0.00008785   -0.00006446   -0.00006446
     atom   67 type  2   force =    -0.00002076   -0.00000112    0.00000112
     atom   68 type  2   force =     0.00001342   -0.00000055    0.00000055
     atom   69 type  2   force =    -0.00002076    0.00000112   -0.00000112
     atom   70 type  2   force =     0.00001342    0.00000055   -0.00000055
     atom   71 type  2   force =    -0.00010168   -0.00007747   -0.00007747
     atom   72 type  2   force =    -0.00008785    0.00006446    0.00006446
     atom   73 type  2   force =    -0.00011963   -0.00004943    0.00001573
     atom   74 type  2   force =    -0.00001550   -0.00002464   -0.00002721
     atom   75 type  2   force =    -0.00011963    0.00004943   -0.00001573
     atom   76 type  2   force =    -0.00001550    0.00002464    0.00002721
     atom   77 type  2   force =    -0.00004892    0.00002961    0.00002137
     atom   78 type  2   force =    -0.00002992    0.00005107   -0.00004173
     atom   79 type  2   force =    -0.00004892   -0.00002961   -0.00002137
     atom   80 type  2   force =    -0.00002992   -0.00005107    0.00004173
     atom   81 type  2   force =     0.00040742    0.00000000    0.00000000
     atom   82 type  2   force =     0.00035139    0.00000000    0.00000000
     atom   83 type  2   force =    -0.00000949    0.00000000    0.00000000
     atom   84 type  2   force =     0.00001346    0.00000000    0.00000000
     atom   85 type  2   force =    -0.00000949    0.00000000    0.00000000
     atom   86 type  2   force =     0.00001346    0.00000000    0.00000000
     atom   87 type  2   force =    -0.00013759    0.00000000    0.00000000
     atom   88 type  2   force =    -0.00002240    0.00000000    0.00000000
     atom   89 type  2   force =    -0.00011963    0.00001573   -0.00004943
     atom   90 type  2   force =    -0.00001550   -0.00002721   -0.00002464
     atom   91 type  2   force =    -0.00004892    0.00002137    0.00002961
     atom   92 type  2   force =    -0.00002992   -0.00004173    0.00005107
     atom   93 type  2   force =    -0.00011963   -0.00001573    0.00004943
     atom   94 type  2   force =    -0.00001550    0.00002721    0.00002464
     atom   95 type  2   force =    -0.00004892   -0.00002137   -0.00002961
     atom   96 type  2   force =    -0.00002992    0.00004173   -0.00005107

     Total force =     0.001868     Total SCF correction =     0.001659
     SCF correction compared to forces is large: reduce conv_thr to get better values


     Computing stress (Cartesian axis) and pressure

          total   stress  (Ry/bohr**3)                   (kbar)     P=       -6.04
  -0.00004132   0.00000000   0.00000000           -6.08        0.00        0.00
   0.00000000  -0.00004089   0.00000096            0.00       -6.02        0.14
   0.00000000   0.00000096  -0.00004089            0.00        0.14       -6.02


     init_run     :   3159.12s CPU   3303.54s WALL (       1 calls)
     electrons    : 237613.52s CPU 249183.09s WALL (       1 calls)
     forces       :   1761.03s CPU   1828.97s WALL (       1 calls)
     stress       :  11853.78s CPU  12164.99s WALL (       1 calls)

     Called by init_run:
     wfcinit      :   3149.43s CPU   3290.46s WALL (       1 calls)
     potinit      :      1.38s CPU      1.55s WALL (       1 calls)
     hinit0       :      1.82s CPU      1.96s WALL (       1 calls)

     Called by electrons:
     c_bands      : 218801.26s CPU 229550.67s WALL (      33 calls)
     sum_band     :  18583.16s CPU  19306.21s WALL (      33 calls)
     v_of_rho     :     38.63s CPU     39.21s WALL (      33 calls)
     newd         :    187.70s CPU    286.25s WALL (      33 calls)
     mix_rho      :      9.02s CPU      9.80s WALL (      33 calls)

     Called by c_bands:
     init_us_2    :    484.28s CPU    714.81s WALL (     828 calls)
     init_us_2:cp :    484.28s CPU    714.81s WALL (     828 calls)
     cegterg      : 215984.26s CPU 226413.32s WALL (     396 calls)

     Called by *egterg:
     cdiaghg      :   4922.56s CPU   4959.88s WALL (    3784 calls)
     h_psi        :  92580.06s CPU  96310.56s WALL (    3808 calls)
     s_psi        :  34335.49s CPU  35504.44s WALL (    3808 calls)
     g_psi        :    169.30s CPU    196.14s WALL (    3400 calls)

     Called by h_psi:
     h_psi:calbec :  33749.61s CPU  35452.59s WALL (    3808 calls)
     vloc_psi     :  24288.72s CPU  24647.17s WALL (    3808 calls)
     add_vuspsi   :  34366.63s CPU  35681.19s WALL (    3808 calls)

     General routines
     calbec       :  48583.97s CPU  50687.99s WALL (    4264 calls)
     fft          :      7.17s CPU      7.42s WALL (     389 calls)
     ffts         :      0.61s CPU      0.63s WALL (      33 calls)
     fftw         :  24098.79s CPU  24342.18s WALL ( 1422010 calls)

     Parallel routines

     PWSCF        :   2d22h39m CPU   3d 2h 1m WALL


   This run was terminated on:  14: 5:32  20May2023            

=------------------------------------------------------------------------------=
   JOB DONE.
=------------------------------------------------------------------------------=
