96   
2    

1    
  0.0200000000000000   0.0000000000000000   0.0000000000000000
  -0.0016145704    0.0000000000   -0.0000000000
  -0.0000480004    0.0000000000   -0.0000000000
  -0.0000015704    0.0000000000   -0.0000000000
   0.0000078896    0.0000000000   -0.0000000000
  -0.0000015704    0.0000000000   -0.0000000000
   0.0000078896    0.0000000000   -0.0000000000
   0.0000274996    0.0000000000   -0.0000000000
  -0.0000236504    0.0000000000   -0.0000000000
  -0.0000219104    0.0000000000    0.0000673800
   0.0000643596   -0.0000000000    0.0000140300
   0.0000368896    0.0000000000    0.0000100500
  -0.0000466604    0.0000000000    0.0000109200
  -0.0000219104    0.0000000000   -0.0000673800
   0.0000643596    0.0000000000   -0.0000140300
   0.0000368896    0.0000000000   -0.0000100500
  -0.0000466604    0.0000000000   -0.0000109200
   0.0000215896   -0.0000202100   -0.0000202100
  -0.0000158304    0.0000667600    0.0000667600
   0.0000215896    0.0000202100   -0.0000202100
  -0.0000158304   -0.0000667600    0.0000667600
   0.0000215896   -0.0000202100    0.0000202100
  -0.0000158304    0.0000667600   -0.0000667600
   0.0000215896    0.0000202100    0.0000202100
  -0.0000158304   -0.0000667600   -0.0000667600
  -0.0000219104    0.0000673800   -0.0000000000
   0.0000643596    0.0000140300   -0.0000000000
  -0.0000219104   -0.0000673800   -0.0000000000
   0.0000643596   -0.0000140300   -0.0000000000
   0.0000368896    0.0000100500   -0.0000000000
  -0.0000466604    0.0000109200   -0.0000000000
   0.0000368896   -0.0000100500   -0.0000000000
  -0.0000466604   -0.0000109200   -0.0000000000
  -0.0000708704    0.0000693000    0.0000693000
   0.0002528096   -0.0002519500   -0.0002519500
  -0.0000088504    0.0000127400   -0.0000054300
  -0.0000066104   -0.0000301200    0.0000325300
  -0.0000088504   -0.0000054300    0.0000127400
  -0.0000066104    0.0000325300   -0.0000301200
   0.0000645296   -0.0000718300   -0.0000718300
  -0.0000472604    0.0000502800    0.0000502800
   0.0000191896    0.0000046500   -0.0000112400
   0.0000145296    0.0000269900    0.0000070000
   0.0000355396    0.0000359700   -0.0000359700
  -0.0000556004   -0.0000545700    0.0000545700
   0.0001517996    0.0001730100   -0.0001730100
   0.0000056196    0.0000615500   -0.0000615500
   0.0000191896    0.0000112400   -0.0000046500
   0.0000145296   -0.0000070000   -0.0000269900
   0.0000645296    0.0000718300    0.0000718300
  -0.0000472604   -0.0000502800   -0.0000502800
  -0.0000088504    0.0000054300   -0.0000127400
  -0.0000066104   -0.0000325300    0.0000301200
  -0.0000088504   -0.0000127400    0.0000054300
  -0.0000066104    0.0000301200   -0.0000325300
  -0.0000708704   -0.0000693000   -0.0000693000
   0.0002528096    0.0002519500    0.0002519500
   0.0000191896   -0.0000112400    0.0000046500
   0.0000145296    0.0000070000    0.0000269900
   0.0001517996   -0.0001730100    0.0001730100
   0.0000056196   -0.0000615500    0.0000615500
   0.0000355396   -0.0000359700    0.0000359700
  -0.0000556004    0.0000545700   -0.0000545700
   0.0000191896   -0.0000046500    0.0000112400
   0.0000145296   -0.0000269900   -0.0000070000
   0.0000355396   -0.0000359700   -0.0000359700
  -0.0000556004    0.0000545700    0.0000545700
   0.0000191896   -0.0000046500   -0.0000112400
   0.0000145296   -0.0000269900    0.0000070000
   0.0000191896   -0.0000112400   -0.0000046500
   0.0000145296    0.0000070000   -0.0000269900
   0.0001517996   -0.0001730100   -0.0001730100
   0.0000056196   -0.0000615500   -0.0000615500
  -0.0000088504   -0.0000127400   -0.0000054300
  -0.0000066104    0.0000301200    0.0000325300
  -0.0000708704   -0.0000693000    0.0000693000
   0.0002528096    0.0002519500   -0.0002519500
   0.0000645296    0.0000718300   -0.0000718300
  -0.0000472604   -0.0000502800    0.0000502800
  -0.0000088504    0.0000054300    0.0000127400
  -0.0000066104   -0.0000325300   -0.0000301200
   0.0001517996    0.0001730100    0.0001730100
   0.0000056196    0.0000615500    0.0000615500
   0.0000191896    0.0000112400    0.0000046500
   0.0000145296   -0.0000070000    0.0000269900
   0.0000191896    0.0000046500    0.0000112400
   0.0000145296    0.0000269900   -0.0000070000
   0.0000355396    0.0000359700    0.0000359700
  -0.0000556004   -0.0000545700   -0.0000545700
  -0.0000088504   -0.0000054300   -0.0000127400
  -0.0000066104    0.0000325300    0.0000301200
   0.0000645296   -0.0000718300    0.0000718300
  -0.0000472604    0.0000502800   -0.0000502800
  -0.0000708704    0.0000693000   -0.0000693000
   0.0002528096   -0.0002519500    0.0002519500
  -0.0000088504    0.0000127400    0.0000054300
  -0.0000066104   -0.0000301200   -0.0000325300

33   
  0.0200000000000000   0.0000000000000000   0.0000000000000000
   0.0000021000    0.0000333400    0.0000333400
   0.0001695300   -0.0001667200   -0.0001667200
  -0.0000078600   -0.0000310800   -0.0000518600
   0.0000122600   -0.0000362700   -0.0000590300
  -0.0000078600   -0.0000518600   -0.0000310800
   0.0000122600   -0.0000590300   -0.0000362700
  -0.0000394800    0.0000586800    0.0000586800
   0.0000334400    0.0000617100    0.0000617100
   0.0001609800    0.0002490100   -0.0002490100
   0.0000101100    0.0000225900   -0.0000225900
  -0.0000302900   -0.0000371500    0.0000258500
   0.0000421400   -0.0000013100    0.0000589100
  -0.0000302900   -0.0000258500    0.0000371500
   0.0000421400   -0.0000589100    0.0000013100
  -0.0000300000    0.0000342900   -0.0000342900
   0.0000341600    0.0000617400   -0.0000617400
   0.0000021000   -0.0000333400   -0.0000333400
   0.0001695300    0.0001667200    0.0001667200
  -0.0000078600    0.0000310800    0.0000518600
   0.0000122600    0.0000362700    0.0000590300
  -0.0000078600    0.0000518600    0.0000310800
   0.0000122600    0.0000590300    0.0000362700
  -0.0000394800   -0.0000586800   -0.0000586800
   0.0000334400   -0.0000617100   -0.0000617100
   0.0001609800   -0.0002490100    0.0002490100
   0.0000101100   -0.0000225900    0.0000225900
  -0.0000302900    0.0000371500   -0.0000258500
   0.0000421400    0.0000013100   -0.0000589100
  -0.0000302900    0.0000258500   -0.0000371500
   0.0000421400    0.0000589100   -0.0000013100
  -0.0000300000   -0.0000342900    0.0000342900
   0.0000341600   -0.0000617400    0.0000617400
  -0.0014867700   -0.0000000000   -0.0000000000
   0.0000477700   -0.0000000000   -0.0000000000
  -0.0000080900   -0.0000000000   -0.0000000000
   0.0000114400   -0.0000000000   -0.0000000000
  -0.0000080900   -0.0000000000   -0.0000000000
   0.0000114400   -0.0000000000   -0.0000000000
   0.0000186500   -0.0000000000   -0.0000000000
   0.0001415500   -0.0000000000   -0.0000000000
   0.0000645600   -0.0000362700   -0.0000705800
   0.0000588800    0.0000316500    0.0000018300
   0.0000146100   -0.0000471800    0.0000373800
   0.0000632200    0.0000225700    0.0000443200
   0.0000645600    0.0000362700    0.0000705800
   0.0000588800   -0.0000316500   -0.0000018300
   0.0000146100    0.0000471800   -0.0000373800
   0.0000632200   -0.0000225700   -0.0000443200
   0.0000901200   -0.0000435300   -0.0000435300
   0.0000911200    0.0000634700    0.0000634700
   0.0000014800   -0.0000006100    0.0000006100
  -0.0000011200    0.0000073600   -0.0000073600
   0.0000014800    0.0000006100   -0.0000006100
  -0.0000011200   -0.0000073600    0.0000073600
   0.0000901200    0.0000435300    0.0000435300
   0.0000911200   -0.0000634700   -0.0000634700
   0.0000645600   -0.0000705800   -0.0000362700
   0.0000588800    0.0000018300    0.0000316500
   0.0000645600    0.0000705800    0.0000362700
   0.0000588800   -0.0000018300   -0.0000316500
   0.0000146100    0.0000373800   -0.0000471800
   0.0000632200    0.0000443200    0.0000225700
   0.0000146100   -0.0000373800    0.0000471800
   0.0000632200   -0.0000443200   -0.0000225700
  -0.0001016800    0.0000774700    0.0000774700
  -0.0000878500   -0.0000644600   -0.0000644600
  -0.0000207600   -0.0000011200    0.0000011200
   0.0000134200   -0.0000005500    0.0000005500
  -0.0000207600    0.0000011200   -0.0000011200
   0.0000134200    0.0000005500   -0.0000005500
  -0.0001016800   -0.0000774700   -0.0000774700
  -0.0000878500    0.0000644600    0.0000644600
  -0.0001196300   -0.0000494300    0.0000157300
  -0.0000155000   -0.0000246400   -0.0000272100
  -0.0001196300    0.0000494300   -0.0000157300
  -0.0000155000    0.0000246400    0.0000272100
  -0.0000489200    0.0000296100    0.0000213700
  -0.0000299200    0.0000510700   -0.0000417300
  -0.0000489200   -0.0000296100   -0.0000213700
  -0.0000299200   -0.0000510700    0.0000417300
   0.0004074200   -0.0000000000   -0.0000000000
   0.0003513900   -0.0000000000   -0.0000000000
  -0.0000094900   -0.0000000000   -0.0000000000
   0.0000134600   -0.0000000000   -0.0000000000
  -0.0000094900   -0.0000000000   -0.0000000000
   0.0000134600   -0.0000000000   -0.0000000000
  -0.0001375900   -0.0000000000   -0.0000000000
  -0.0000224000   -0.0000000000   -0.0000000000
  -0.0001196300    0.0000157300   -0.0000494300
  -0.0000155000   -0.0000272100   -0.0000246400
  -0.0000489200    0.0000213700    0.0000296100
  -0.0000299200   -0.0000417300    0.0000510700
  -0.0001196300   -0.0000157300    0.0000494300
  -0.0000155000    0.0000272100    0.0000246400
  -0.0000489200   -0.0000213700   -0.0000296100
  -0.0000299200    0.0000417300   -0.0000510700
