mesh: [    31,    31,    31 ]
nqpoint: 816    
reciprocal_lattice:
- [  -0.08253773,   0.08253773,   0.08253773 ] # a*
- [   0.08253773,  -0.08253773,   0.08253773 ] # b*
- [   0.08253773,   0.08253773,  -0.08253773 ] # c*
natom:   3      
lattice:
- [     0.000000000000000,     6.057835500000000,     6.057835500000000 ] # a
- [     6.057835500000000,     0.000000000000000,     6.057835500000000 ] # b
- [     6.057835500000000,     6.057835500000000,     0.000000000000000 ] # c
points:
- symbol: Cu # 1
  coordinates: [  0.000000000000000,  0.000000000000000,  0.000000000000000 ]
  mass: 63.546000
- symbol: In # 2
  coordinates: [  0.750000000000000,  0.750000000000000,  0.750000000000000 ]
  mass: 114.818000
- symbol: In # 3
  coordinates: [  0.250000000000000,  0.250000000000000,  0.250000000000000 ]
  mass: 114.818000

phonon:
- q-position: [    0.0000000,    0.0000000,    0.0000000 ]
  distance_from_gamma:  0.000000000
  weight: 1    
  band:
  - # 1
    frequency:    -1.6695542566
  - # 2
    frequency:    -1.6695542566
  - # 3
    frequency:    -1.6695542566
  - # 4
    frequency:    -0.0018970365
  - # 5
    frequency:    -0.0018970365
  - # 6
    frequency:    -0.0018970365
  - # 7
    frequency:     4.2195376352
  - # 8
    frequency:     4.2195376352
  - # 9
    frequency:     4.2195376352

- q-position: [    0.0322581,    0.0000000,    0.0000000 ]
  distance_from_gamma:  0.004611598
  weight: 8    
  band:
  - # 1
    frequency:    -1.5933147712
  - # 2
    frequency:    -1.5933147712
  - # 3
    frequency:    -1.5890090792
  - # 4
    frequency:     0.2400186600
  - # 5
    frequency:     0.2400186600
  - # 6
    frequency:     0.3898111606
  - # 7
    frequency:     4.2155788838
  - # 8
    frequency:     4.2188533184
  - # 9
    frequency:     4.2188533184

- q-position: [    0.0645161,    0.0000000,    0.0000000 ]
  distance_from_gamma:  0.009223196
  weight: 8    
  band:
  - # 1
    frequency:    -1.3609517955
  - # 2
    frequency:    -1.3609517955
  - # 3
    frequency:    -1.3482954060
  - # 4
    frequency:     0.4931342024
  - # 5
    frequency:     0.4931342024
  - # 6
    frequency:     0.7937519022
  - # 7
    frequency:     4.2048682080
  - # 8
    frequency:     4.2171773880
  - # 9
    frequency:     4.2171773880

- q-position: [    0.0967742,    0.0000000,    0.0000000 ]
  distance_from_gamma:  0.013834795
  weight: 8    
  band:
  - # 1
    frequency:    -0.9682895905
  - # 2
    frequency:    -0.9682895905
  - # 3
    frequency:    -0.9412490108
  - # 4
    frequency:     0.7976369426
  - # 5
    frequency:     0.7976369426
  - # 6
    frequency:     1.2211284757
  - # 7
    frequency:     4.1908310748
  - # 8
    frequency:     4.2155467219
  - # 9
    frequency:     4.2155467219

- q-position: [    0.1290323,    0.0000000,    0.0000000 ]
  distance_from_gamma:  0.018446393
  weight: 8    
  band:
  - # 1
    frequency:    -0.4401034599
  - # 2
    frequency:    -0.4401034599
  - # 3
    frequency:     0.2228199370
  - # 4
    frequency:     1.2053179707
  - # 5
    frequency:     1.2053179707
  - # 6
    frequency:     1.6496930850
  - # 7
    frequency:     4.1788101309
  - # 8
    frequency:     4.2154099424
  - # 9
    frequency:     4.2154099424

- q-position: [    0.1612903,    0.0000000,    0.0000000 ]
  distance_from_gamma:  0.023057991
  weight: 8    
  band:
  - # 1
    frequency:     0.4875929139
  - # 2
    frequency:     0.4875929139
  - # 3
    frequency:     0.9672192622
  - # 4
    frequency:     1.6246568903
  - # 5
    frequency:     1.6246568903
  - # 6
    frequency:     2.0285739320
  - # 7
    frequency:     4.1750238807
  - # 8
    frequency:     4.2182925214
  - # 9
    frequency:     4.2182925214

- q-position: [    0.1935484,    0.0000000,    0.0000000 ]
  distance_from_gamma:  0.027669589
  weight: 8    
  band:
  - # 1
    frequency:     0.7319843130
  - # 2
    frequency:     0.7319843130
  - # 3
    frequency:     1.3453679718
  - # 4
    frequency:     1.9620244254
  - # 5
    frequency:     1.9620244254
  - # 6
    frequency:     2.3253373023
  - # 7
    frequency:     4.1842490199
  - # 8
    frequency:     4.2254144291
  - # 9
    frequency:     4.2254144291

- q-position: [    0.2258065,    0.0000000,    0.0000000 ]
  distance_from_gamma:  0.032281187
  weight: 8    
  band:
  - # 1
    frequency:     0.8859082778
  - # 2
    frequency:     0.8859082778
  - # 3
    frequency:     1.6444950001
  - # 4
    frequency:     2.2106616273
  - # 5
    frequency:     2.2106616273
  - # 6
    frequency:     2.5351382184
  - # 7
    frequency:     4.2065577149
  - # 8
    frequency:     4.2372925787
  - # 9
    frequency:     4.2372925787

- q-position: [    0.2580645,    0.0000000,    0.0000000 ]
  distance_from_gamma:  0.036892786
  weight: 8    
  band:
  - # 1
    frequency:     1.0053787634
  - # 2
    frequency:     1.0053787634
  - # 3
    frequency:     1.9068630951
  - # 4
    frequency:     2.3837160581
  - # 5
    frequency:     2.3837160581
  - # 6
    frequency:     2.6699697042
  - # 7
    frequency:     4.2357292568
  - # 8
    frequency:     4.2534676704
  - # 9
    frequency:     4.2534676704

- q-position: [    0.2903226,    0.0000000,    0.0000000 ]
  distance_from_gamma:  0.041504384
  weight: 8    
  band:
  - # 1
    frequency:     1.1060368367
  - # 2
    frequency:     1.1060368367
  - # 3
    frequency:     2.1482835164
  - # 4
    frequency:     2.4980505827
  - # 5
    frequency:     2.4980505827
  - # 6
    frequency:     2.7494170797
  - # 7
    frequency:     4.2619545665
  - # 8
    frequency:     4.2725852378
  - # 9
    frequency:     4.2725852378

- q-position: [    0.3225806,    0.0000000,    0.0000000 ]
  distance_from_gamma:  0.046115982
  weight: 8    
  band:
  - # 1
    frequency:     1.1934737900
  - # 2
    frequency:     1.1934737900
  - # 3
    frequency:     2.3748463930
  - # 4
    frequency:     2.5710019500
  - # 5
    frequency:     2.5710019500
  - # 6
    frequency:     2.7930703869
  - # 7
    frequency:     4.2767717587
  - # 8
    frequency:     4.2928564434
  - # 9
    frequency:     4.2928564434

- q-position: [    0.3548387,    0.0000000,    0.0000000 ]
  distance_from_gamma:  0.050727580
  weight: 8    
  band:
  - # 1
    frequency:     1.2689787912
  - # 2
    frequency:     1.2689787912
  - # 3
    frequency:     2.5859012832
  - # 4
    frequency:     2.6178144963
  - # 5
    frequency:     2.6178144963
  - # 6
    frequency:     2.8167604638
  - # 7
    frequency:     4.2760521181
  - # 8
    frequency:     4.3125704449
  - # 9
    frequency:     4.3125704449

- q-position: [    0.3870968,    0.0000000,    0.0000000 ]
  distance_from_gamma:  0.055339179
  weight: 8    
  band:
  - # 1
    frequency:     1.3318803932
  - # 2
    frequency:     1.3318803932
  - # 3
    frequency:     2.6495158678
  - # 4
    frequency:     2.6495158678
  - # 5
    frequency:     2.7674115619
  - # 6
    frequency:     2.8395600590
  - # 7
    frequency:     4.2603248165
  - # 8
    frequency:     4.3303215622
  - # 9
    frequency:     4.3303215622

- q-position: [    0.4193548,    0.0000000,    0.0000000 ]
  distance_from_gamma:  0.059950777
  weight: 8    
  band:
  - # 1
    frequency:     1.3808505611
  - # 2
    frequency:     1.3808505611
  - # 3
    frequency:     2.6721523049
  - # 4
    frequency:     2.6721523049
  - # 5
    frequency:     2.8217066787
  - # 6
    frequency:     2.9556429783
  - # 7
    frequency:     4.2342434120
  - # 8
    frequency:     4.3449502043
  - # 9
    frequency:     4.3449502043

- q-position: [    0.4516129,    0.0000000,    0.0000000 ]
  distance_from_gamma:  0.064562375
  weight: 8    
  band:
  - # 1
    frequency:     1.4145066922
  - # 2
    frequency:     1.4145066922
  - # 3
    frequency:     2.6876638672
  - # 4
    frequency:     2.6876638672
  - # 5
    frequency:     2.8278444048
  - # 6
    frequency:     3.0758522830
  - # 7
    frequency:     4.2063092072
  - # 8
    frequency:     4.3554352951
  - # 9
    frequency:     4.3554352951

- q-position: [    0.4838710,    0.0000000,    0.0000000 ]
  distance_from_gamma:  0.069173973
  weight: 8    
  band:
  - # 1
    frequency:     1.4316815120
  - # 2
    frequency:     1.4316815120
  - # 3
    frequency:     2.6957593496
  - # 4
    frequency:     2.6957593496
  - # 5
    frequency:     2.8298495980
  - # 6
    frequency:     3.1424459833
  - # 7
    frequency:     4.1877704334
  - # 8
    frequency:     4.3609290336
  - # 9
    frequency:     4.3609290336

- q-position: [    0.0322581,    0.0322581,    0.0000000 ]
  distance_from_gamma:  0.005325015
  weight: 6    
  band:
  - # 1
    frequency:    -1.5761478957
  - # 2
    frequency:    -1.5598841167
  - # 3
    frequency:    -1.5598841167
  - # 4
    frequency:     0.3003206987
  - # 5
    frequency:     0.3003206987
  - # 6
    frequency:     0.4243388366
  - # 7
    frequency:     4.2136882690
  - # 8
    frequency:     4.2189564098
  - # 9
    frequency:     4.2189564098

- q-position: [    0.0645161,    0.0322581,    0.0000000 ]
  distance_from_gamma:  0.008830538
  weight: 24   
  band:
  - # 1
    frequency:    -1.3989907415
  - # 2
    frequency:    -1.3740399884
  - # 3
    frequency:    -1.3694465318
  - # 4
    frequency:     0.4766629864
  - # 5
    frequency:     0.5139268183
  - # 6
    frequency:     0.7349239967
  - # 7
    frequency:     4.2048101121
  - # 8
    frequency:     4.2179057812
  - # 9
    frequency:     4.2180226298

- q-position: [    0.0967742,    0.0322581,    0.0000000 ]
  distance_from_gamma:  0.013043569
  weight: 24   
  band:
  - # 1
    frequency:    -1.0487499318
  - # 2
    frequency:    -1.0476218983
  - # 3
    frequency:    -1.0071761333
  - # 4
    frequency:     0.6966769057
  - # 5
    frequency:     0.8186724850
  - # 6
    frequency:     1.1339868612
  - # 7
    frequency:     4.1914457716
  - # 8
    frequency:     4.2167795558
  - # 9
    frequency:     4.2168388194

- q-position: [    0.1290323,    0.0322581,    0.0000000 ]
  distance_from_gamma:  0.017459229
  weight: 24   
  band:
  - # 1
    frequency:    -0.6450056982
  - # 2
    frequency:    -0.5077794127
  - # 3
    frequency:    -0.2111049837
  - # 4
    frequency:     1.0097492892
  - # 5
    frequency:     1.2186337128
  - # 6
    frequency:     1.5584834994
  - # 7
    frequency:     4.1781065078
  - # 8
    frequency:     4.2167850688
  - # 9
    frequency:     4.2171305968

- q-position: [    0.1612903,    0.0322581,    0.0000000 ]
  distance_from_gamma:  0.021955599
  weight: 24   
  band:
  - # 1
    frequency:     0.1541973231
  - # 2
    frequency:     0.5593438368
  - # 3
    frequency:     0.8830718511
  - # 4
    frequency:     1.4325301851
  - # 5
    frequency:     1.6284565489
  - # 6
    frequency:     1.9500858492
  - # 7
    frequency:     4.1707207615
  - # 8
    frequency:     4.2195040238
  - # 9
    frequency:     4.2205142610

- q-position: [    0.1935484,    0.0322581,    0.0000000 ]
  distance_from_gamma:  0.026491615
  weight: 24   
  band:
  - # 1
    frequency:     0.5818852898
  - # 2
    frequency:     0.8053579519
  - # 3
    frequency:     1.2618856605
  - # 4
    frequency:     1.8069958373
  - # 5
    frequency:     1.9674633840
  - # 6
    frequency:     2.2670424266
  - # 7
    frequency:     4.1745822163
  - # 8
    frequency:     4.2264394544
  - # 9
    frequency:     4.2283631090

- q-position: [    0.2258065,    0.0322581,    0.0000000 ]
  distance_from_gamma:  0.031049906
  weight: 24   
  band:
  - # 1
    frequency:     0.7759088352
  - # 2
    frequency:     0.9500499927
  - # 3
    frequency:     1.5604183814
  - # 4
    frequency:     2.0891237072
  - # 5
    frequency:     2.2221949451
  - # 6
    frequency:     2.4975905397
  - # 7
    frequency:     4.1911644202
  - # 8
    frequency:     4.2383080734
  - # 9
    frequency:     4.2417387408

- q-position: [    0.2580645,    0.0322581,    0.0000000 ]
  distance_from_gamma:  0.035621922
  weight: 24   
  band:
  - # 1
    frequency:     0.9166899122
  - # 2
    frequency:     1.0602977674
  - # 3
    frequency:     1.8204166337
  - # 4
    frequency:     2.2902569333
  - # 5
    frequency:     2.4010841044
  - # 6
    frequency:     2.6494296227
  - # 7
    frequency:     4.2160480400
  - # 8
    frequency:     4.2547057827
  - # 9
    frequency:     4.2606403448

- q-position: [    0.2903226,    0.0322581,    0.0000000 ]
  distance_from_gamma:  0.040202981
  weight: 24   
  band:
  - # 1
    frequency:     1.0316934575
  - # 2
    frequency:     1.1527279184
  - # 3
    frequency:     2.0573109481
  - # 4
    frequency:     2.4282791819
  - # 5
    frequency:     2.5187319133
  - # 6
    frequency:     2.7403992527
  - # 7
    frequency:     4.2420126775
  - # 8
    frequency:     4.2741651182
  - # 9
    frequency:     4.2821678114

- q-position: [    0.3225806,    0.0322581,    0.0000000 ]
  distance_from_gamma:  0.044790308
  weight: 24   
  band:
  - # 1
    frequency:     1.1305673985
  - # 2
    frequency:     1.2331117636
  - # 3
    frequency:     2.2750883837
  - # 4
    frequency:     2.5242577952
  - # 5
    frequency:     2.5916943023
  - # 6
    frequency:     2.7904098704
  - # 7
    frequency:     4.2638862657
  - # 8
    frequency:     4.2947312426
  - # 9
    frequency:     4.3006372614

- q-position: [    0.3548387,    0.0322581,    0.0000000 ]
  distance_from_gamma:  0.049382157
  weight: 24   
  band:
  - # 1
    frequency:     1.2166119251
  - # 2
    frequency:     1.3027767286
  - # 3
    frequency:     2.4593236534
  - # 4
    frequency:     2.6103691747
  - # 5
    frequency:     2.6354445135
  - # 6
    frequency:     2.8161197947
  - # 7
    frequency:     4.2756306974
  - # 8
    frequency:     4.3146415708
  - # 9
    frequency:     4.3147629925

- q-position: [    0.3870968,    0.0322581,    0.0000000 ]
  distance_from_gamma:  0.053977373
  weight: 24   
  band:
  - # 1
    frequency:     1.2901810565
  - # 2
    frequency:     1.3609421034
  - # 3
    frequency:     2.5630000662
  - # 4
    frequency:     2.6618612634
  - # 5
    frequency:     2.7413683642
  - # 6
    frequency:     2.8305332575
  - # 7
    frequency:     4.2698007068
  - # 8
    frequency:     4.3294945848
  - # 9
    frequency:     4.3326299789

- q-position: [    0.4193548,    0.0322581,    0.0000000 ]
  distance_from_gamma:  0.058575164
  weight: 24   
  band:
  - # 1
    frequency:     1.3503940830
  - # 2
    frequency:     1.4061040886
  - # 3
    frequency:     2.6098227913
  - # 4
    frequency:     2.6780175675
  - # 5
    frequency:     2.8278822283
  - # 6
    frequency:     2.9061271558
  - # 7
    frequency:     4.2489277803
  - # 8
    frequency:     4.3442479785
  - # 9
    frequency:     4.3477989463

- q-position: [    0.4516129,    0.0322581,    0.0000000 ]
  distance_from_gamma:  0.063174968
  weight: 24   
  band:
  - # 1
    frequency:     1.3960077257
  - # 2
    frequency:     1.4367211438
  - # 3
    frequency:     2.6393765383
  - # 4
    frequency:     2.6866667508
  - # 5
    frequency:     2.8336602309
  - # 6
    frequency:     3.0345009584
  - # 7
    frequency:     4.2220166727
  - # 8
    frequency:     4.3559940317
  - # 9
    frequency:     4.3593477834

- q-position: [    0.4838710,    0.0322581,    0.0000000 ]
  distance_from_gamma:  0.067776375
  weight: 24   
  band:
  - # 1
    frequency:     1.4258114409
  - # 2
    frequency:     1.4514635447
  - # 3
    frequency:     2.6595705928
  - # 4
    frequency:     2.6879791512
  - # 5
    frequency:     2.8357689852
  - # 6
    frequency:     3.1178253695
  - # 7
    frequency:     4.2001822138
  - # 8
    frequency:     4.3630463373
  - # 9
    frequency:     4.3664484230

- q-position: [   -0.4838710,    0.0322581,    0.0000000 ]
  distance_from_gamma:  0.070844716
  weight: 24   
  band:
  - # 1
    frequency:     1.4389246317
  - # 2
    frequency:     1.4494284512
  - # 3
    frequency:     2.6710533911
  - # 4
    frequency:     2.6815020690
  - # 5
    frequency:     2.8364843942
  - # 6
    frequency:     3.1396258984
  - # 7
    frequency:     4.1938809742
  - # 8
    frequency:     4.3646691920
  - # 9
    frequency:     4.3683633553

- q-position: [   -0.4516129,    0.0322581,    0.0000000 ]
  distance_from_gamma:  0.066242415
  weight: 24   
  band:
  - # 1
    frequency:     1.4303918735
  - # 2
    frequency:     1.4350888546
  - # 3
    frequency:     2.6674344894
  - # 4
    frequency:     2.6733163175
  - # 5
    frequency:     2.8359192922
  - # 6
    frequency:     3.0954865463
  - # 7
    frequency:     4.2065509589
  - # 8
    frequency:     4.3608443976
  - # 9
    frequency:     4.3646946823

- q-position: [   -0.4193548,    0.0322581,    0.0000000 ]
  distance_from_gamma:  0.061641504
  weight: 24   
  band:
  - # 1
    frequency:     1.3948822691
  - # 2
    frequency:     1.4147892530
  - # 3
    frequency:     2.6468101895
  - # 4
    frequency:     2.6655089581
  - # 5
    frequency:     2.8337022128
  - # 6
    frequency:     2.9943680257
  - # 7
    frequency:     4.2317744301
  - # 8
    frequency:     4.3521195443
  - # 9
    frequency:     4.3555686285

- q-position: [   -0.3870968,    0.0322581,    0.0000000 ]
  distance_from_gamma:  0.057042320
  weight: 24   
  band:
  - # 1
    frequency:     1.3439738972
  - # 2
    frequency:     1.3791266369
  - # 3
    frequency:     2.6205768696
  - # 4
    frequency:     2.6432023856
  - # 5
    frequency:     2.8238588590
  - # 6
    frequency:     2.8604698934
  - # 7
    frequency:     4.2585269224
  - # 8
    frequency:     4.3394189962
  - # 9
    frequency:     4.3416375624

- q-position: [   -0.3548387,    0.0322581,    0.0000000 ]
  distance_from_gamma:  0.052445315
  weight: 24   
  band:
  - # 1
    frequency:     1.2789466302
  - # 2
    frequency:     1.3296039448
  - # 3
    frequency:     2.5767736342
  - # 4
    frequency:     2.5878206264
  - # 5
    frequency:     2.7145827956
  - # 6
    frequency:     2.8261388122
  - # 7
    frequency:     4.2768380028
  - # 8
    frequency:     4.3239441745
  - # 9
    frequency:     4.3240836800

- q-position: [   -0.3225806,    0.0322581,    0.0000000 ]
  distance_from_gamma:  0.047851119
  weight: 24   
  band:
  - # 1
    frequency:     1.2009431348
  - # 2
    frequency:     1.2679663044
  - # 3
    frequency:     2.4145070435
  - # 4
    frequency:     2.5437624683
  - # 5
    frequency:     2.6413659133
  - # 6
    frequency:     2.8097171260
  - # 7
    frequency:     4.2792484965
  - # 8
    frequency:     4.3037923305
  - # 9
    frequency:     4.3084407273

- q-position: [   -0.2903226,    0.0322581,    0.0000000 ]
  distance_from_gamma:  0.043260626
  weight: 24   
  band:
  - # 1
    frequency:     1.1104390060
  - # 2
    frequency:     1.1958724782
  - # 3
    frequency:     2.2056157072
  - # 4
    frequency:     2.4785363383
  - # 5
    frequency:     2.5784315552
  - # 6
    frequency:     2.7775085852
  - # 7
    frequency:     4.2643568820
  - # 8
    frequency:     4.2827105943
  - # 9
    frequency:     4.2928391667

- q-position: [   -0.2580645,    0.0322581,    0.0000000 ]
  distance_from_gamma:  0.038675155
  weight: 24   
  band:
  - # 1
    frequency:     1.0061312412
  - # 2
    frequency:     1.1140268060
  - # 3
    frequency:     1.9773046480
  - # 4
    frequency:     2.3775578212
  - # 5
    frequency:     2.4877739842
  - # 6
    frequency:     2.7159683151
  - # 7
    frequency:     4.2395565482
  - # 8
    frequency:     4.2624292878
  - # 9
    frequency:     4.2737031912

- q-position: [   -0.2258065,    0.0322581,    0.0000000 ]
  distance_from_gamma:  0.034096732
  weight: 24   
  band:
  - # 1
    frequency:     0.8828255599
  - # 2
    frequency:     1.0207471968
  - # 3
    frequency:     1.7304576400
  - # 4
    frequency:     2.2233527148
  - # 5
    frequency:     2.3489602702
  - # 6
    frequency:     2.6071283243
  - # 7
    frequency:     4.2111984999
  - # 8
    frequency:     4.2446974317
  - # 9
    frequency:     4.2536111667

- q-position: [   -0.1935484,    0.0322581,    0.0000000 ]
  distance_from_gamma:  0.029528636
  weight: 24   
  band:
  - # 1
    frequency:     0.7265519061
  - # 2
    frequency:     0.9098220367
  - # 3
    frequency:     1.4554499510
  - # 4
    frequency:     1.9977625647
  - # 5
    frequency:     2.1447093175
  - # 6
    frequency:     2.4311121154
  - # 7
    frequency:     4.1865880845
  - # 8
    frequency:     4.2308956939
  - # 9
    frequency:     4.2369606098

- q-position: [   -0.1612903,    0.0322581,    0.0000000 ]
  distance_from_gamma:  0.024976534
  weight: 24   
  band:
  - # 1
    frequency:     0.4925673671
  - # 2
    frequency:     0.7638548987
  - # 3
    frequency:     1.1270707835
  - # 4
    frequency:     1.6834962049
  - # 5
    frequency:     1.8616661411
  - # 6
    frequency:     2.1727553700
  - # 7
    frequency:     4.1730499813
  - # 8
    frequency:     4.2216601845
  - # 9
    frequency:     4.2255986507

- q-position: [   -0.1290323,    0.0322581,    0.0000000 ]
  distance_from_gamma:  0.020451108
  weight: 24   
  band:
  - # 1
    frequency:    -0.3386420907
  - # 2
    frequency:     0.5027400709
  - # 3
    frequency:     0.6557508963
  - # 4
    frequency:     1.2715372167
  - # 5
    frequency:     1.4962501211
  - # 6
    frequency:     1.8301645087
  - # 7
    frequency:     4.1728583358
  - # 8
    frequency:     4.2167772690
  - # 9
    frequency:     4.2194460151

- q-position: [   -0.0967742,    0.0322581,    0.0000000 ]
  distance_from_gamma:  0.015975045
  weight: 24   
  band:
  - # 1
    frequency:    -0.8017678670
  - # 2
    frequency:    -0.6607609227
  - # 3
    frequency:    -0.6296404753
  - # 4
    frequency:     0.8481428426
  - # 5
    frequency:     1.0805299034
  - # 6
    frequency:     1.4248437563
  - # 7
    frequency:     4.1826933691
  - # 8
    frequency:     4.2153581665
  - # 9
    frequency:     4.2173354473

- q-position: [   -0.0645161,    0.0322581,    0.0000000 ]
  distance_from_gamma:  0.011605601
  weight: 24   
  band:
  - # 1
    frequency:    -1.1852975392
  - # 2
    frequency:    -1.1681076676
  - # 3
    frequency:    -1.1541266035
  - # 4
    frequency:     0.5728267822
  - # 5
    frequency:     0.7122961433
  - # 6
    frequency:     1.0080338358
  - # 7
    frequency:     4.1966304008
  - # 8
    frequency:     4.2161209407
  - # 9
    frequency:     4.2175855512

- q-position: [   -0.0322581,    0.0322581,    0.0000000 ]
  distance_from_gamma:  0.007530708
  weight: 12   
  band:
  - # 1
    frequency:    -1.4689780802
  - # 2
    frequency:    -1.4626192464
  - # 3
    frequency:    -1.4514518532
  - # 4
    frequency:     0.3706426875
  - # 5
    frequency:     0.4346234778
  - # 6
    frequency:     0.6365912946
  - # 7
    frequency:     4.2089727316
  - # 8
    frequency:     4.2176806790
  - # 9
    frequency:     4.2184907597

- q-position: [    0.0645161,    0.0645161,    0.0000000 ]
  distance_from_gamma:  0.010650030
  weight: 6    
  band:
  - # 1
    frequency:    -1.2713305247
  - # 2
    frequency:    -1.2304267877
  - # 3
    frequency:    -1.2304267877
  - # 4
    frequency:     0.6667893102
  - # 5
    frequency:     0.6667893102
  - # 6
    frequency:     0.8385343614
  - # 7
    frequency:     4.1975230741
  - # 8
    frequency:     4.2183810955
  - # 9
    frequency:     4.2183810955

- q-position: [    0.0967742,    0.0645161,    0.0000000 ]
  distance_from_gamma:  0.013834795
  weight: 24   
  band:
  - # 1
    frequency:    -0.9650663610
  - # 2
    frequency:    -0.9614826395
  - # 3
    frequency:    -0.9160312630
  - # 4
    frequency:     0.8612384831
  - # 5
    frequency:     0.9484814455
  - # 6
    frequency:     1.1460843210
  - # 7
    frequency:     4.1853840371
  - # 8
    frequency:     4.2187533690
  - # 9
    frequency:     4.2189172091

- q-position: [    0.1290323,    0.0645161,    0.0000000 ]
  distance_from_gamma:  0.017661077
  weight: 24   
  band:
  - # 1
    frequency:    -0.6340795531
  - # 2
    frequency:    -0.5429021009
  - # 3
    frequency:     0.4039791076
  - # 4
    frequency:     1.0629419190
  - # 5
    frequency:     1.3262661799
  - # 6
    frequency:     1.5512993857
  - # 7
    frequency:     4.1717390309
  - # 8
    frequency:     4.2203653187
  - # 9
    frequency:     4.2214388117

- q-position: [    0.1612903,    0.0645161,    0.0000000 ]
  distance_from_gamma:  0.021793563
  weight: 24   
  band:
  - # 1
    frequency:    -0.1687712619
  - # 2
    frequency:     0.4966147862
  - # 3
    frequency:     1.0401493046
  - # 4
    frequency:     1.3644614410
  - # 5
    frequency:     1.7068126723
  - # 6
    frequency:     1.9398865029
  - # 7
    frequency:     4.1617116139
  - # 8
    frequency:     4.2248676284
  - # 9
    frequency:     4.2277882394

- q-position: [    0.1935484,    0.0645161,    0.0000000 ]
  distance_from_gamma:  0.026087139
  weight: 24   
  band:
  - # 1
    frequency:     0.5145113762
  - # 2
    frequency:     0.8224088784
  - # 3
    frequency:     1.3207151842
  - # 4
    frequency:     1.7242475652
  - # 5
    frequency:     2.0265260515
  - # 6
    frequency:     2.2610000767
  - # 7
    frequency:     4.1606525300
  - # 8
    frequency:     4.2338028911
  - # 9
    frequency:     4.2394949549

- q-position: [    0.2258065,    0.0645161,    0.0000000 ]
  distance_from_gamma:  0.030473791
  weight: 24   
  band:
  - # 1
    frequency:     0.7213032018
  - # 2
    frequency:     1.0034606731
  - # 3
    frequency:     1.5535153696
  - # 4
    frequency:     2.0158881358
  - # 5
    frequency:     2.2700503675
  - # 6
    frequency:     2.4990729909
  - # 7
    frequency:     4.1713874863
  - # 8
    frequency:     4.2479313314
  - # 9
    frequency:     4.2574433283

- q-position: [    0.2580645,    0.0645161,    0.0000000 ]
  distance_from_gamma:  0.034918458
  weight: 24   
  band:
  - # 1
    frequency:     0.8689500150
  - # 2
    frequency:     1.1282642690
  - # 3
    frequency:     1.7718949044
  - # 4
    frequency:     2.2303978178
  - # 5
    frequency:     2.4410589906
  - # 6
    frequency:     2.6580679347
  - # 7
    frequency:     4.1920864019
  - # 8
    frequency:     4.2667066141
  - # 9
    frequency:     4.2808276999

- q-position: [    0.2903226,    0.0645161,    0.0000000 ]
  distance_from_gamma:  0.039401512
  weight: 24   
  band:
  - # 1
    frequency:     0.9886591135
  - # 2
    frequency:     1.2252578117
  - # 3
    frequency:     1.9770923785
  - # 4
    frequency:     2.3832230420
  - # 5
    frequency:     2.5511464316
  - # 6
    frequency:     2.7534405341
  - # 7
    frequency:     4.2176464318
  - # 8
    frequency:     4.2883409489
  - # 9
    frequency:     4.3058224361

- q-position: [    0.3225806,    0.0645161,    0.0000000 ]
  distance_from_gamma:  0.043911198
  weight: 24   
  band:
  - # 1
    frequency:     1.0916167702
  - # 2
    frequency:     1.3055607485
  - # 3
    frequency:     2.1653467378
  - # 4
    frequency:     2.4964926721
  - # 5
    frequency:     2.6154506085
  - # 6
    frequency:     2.8046090335
  - # 7
    frequency:     4.2430159952
  - # 8
    frequency:     4.3105536368
  - # 9
    frequency:     4.3265457890

- q-position: [    0.3548387,    0.0645161,    0.0000000 ]
  distance_from_gamma:  0.048440078
  weight: 24   
  band:
  - # 1
    frequency:     1.1822311431
  - # 2
    frequency:     1.3729055474
  - # 3
    frequency:     2.3237009408
  - # 4
    frequency:     2.5996913244
  - # 5
    frequency:     2.6491841926
  - # 6
    frequency:     2.8288144142
  - # 7
    frequency:     4.2635931008
  - # 8
    frequency:     4.3314495046
  - # 9
    frequency:     4.3393282916

- q-position: [    0.3870968,    0.0645161,    0.0000000 ]
  distance_from_gamma:  0.052983230
  weight: 24   
  band:
  - # 1
    frequency:     1.2615576349
  - # 2
    frequency:     1.4276676457
  - # 3
    frequency:     2.4339332326
  - # 4
    frequency:     2.6647491253
  - # 5
    frequency:     2.7215410863
  - # 6
    frequency:     2.8385935256
  - # 7
    frequency:     4.2730420343
  - # 8
    frequency:     4.3467984212
  - # 9
    frequency:     4.3498968051

- q-position: [    0.4193548,    0.0645161,    0.0000000 ]
  distance_from_gamma:  0.057537273
  weight: 24   
  band:
  - # 1
    frequency:     1.3290233338
  - # 2
    frequency:     1.4690208909
  - # 3
    frequency:     2.5012841133
  - # 4
    frequency:     2.6700778645
  - # 5
    frequency:     2.8418034495
  - # 6
    frequency:     2.8587610190
  - # 7
    frequency:     4.2657327057
  - # 8
    frequency:     4.3552725356
  - # 9
    frequency:     4.3653275485

- q-position: [    0.4516129,    0.0645161,    0.0000000 ]
  distance_from_gamma:  0.062099812
  weight: 24   
  band:
  - # 1
    frequency:     1.3834336012
  - # 2
    frequency:     1.4959348624
  - # 3
    frequency:     2.5459658599
  - # 4
    frequency:     2.6686488469
  - # 5
    frequency:     2.8429324597
  - # 6
    frequency:     2.9840793891
  - # 7
    frequency:     4.2460050244
  - # 8
    frequency:     4.3649793391
  - # 9
    frequency:     4.3773090470

- q-position: [    0.4838710,    0.0645161,    0.0000000 ]
  distance_from_gamma:  0.066669102
  weight: 24   
  band:
  - # 1
    frequency:     1.4234747349
  - # 2
    frequency:     1.5074222890
  - # 3
    frequency:     2.5783409268
  - # 4
    frequency:     2.6609770678
  - # 5
    frequency:     2.8436450324
  - # 6
    frequency:     3.0739608256
  - # 7
    frequency:     4.2254353780
  - # 8
    frequency:     4.3723114012
  - # 9
    frequency:     4.3852467246

- q-position: [    0.5161290,    0.0645161,    0.0000000 ]
  distance_from_gamma:  0.071243844
  weight: 24   
  band:
  - # 1
    frequency:     1.4480404131
  - # 2
    frequency:     1.5026879660
  - # 3
    frequency:     2.6007931117
  - # 4
    frequency:     2.6466699235
  - # 5
    frequency:     2.8443524923
  - # 6
    frequency:     3.1113054693