phonopy:
  version: 2.18.0
  calculator: qe
  frequency_unit_conversion_factor: 108.970772
  symmetry_tolerance: 1.00000e-05
  configuration:
    dim: "2 2 2"
    primitive_axis: "AUTO"
    mp: "31 31 31"
    band: "0.0 0.0 0.0  0.5 0.0 0.0  0.5 0.5 0.0  0.0 0.0 0.0  0.5 0.5 0.5"
    cell_filename: "CuC1.in"
    calculator: "qe"
    tprop: ".true."

physical_unit:
  atomic_mass: "AMU"
  length: "au"
  force_constants: "Ry/au^2"

space_group:
  type: "Fm-3m"
  number: 225
  Hall_symbol: "-F 4 2 3"

primitive_matrix:
- [  0.000000000000000,  0.500000000000000,  0.500000000000000 ]
- [  0.500000000000000,  0.000000000000000,  0.500000000000000 ]
- [  0.500000000000000,  0.500000000000000,  0.000000000000000 ]

supercell_matrix:
- [   2,   0,   0 ]
- [   0,   2,   0 ]
- [   0,   0,   2 ]

primitive_cell:
  lattice:
  - [     0.000000000000000,     6.057835500000000,     6.057835500000000 ] # a
  - [     6.057835500000000,     0.000000000000000,     6.057835500000000 ] # b
  - [     6.057835500000000,     6.057835500000000,     0.000000000000000 ] # c
  points:
  - symbol: Cu # 1
    coordinates: [  0.000000000000000,  0.000000000000000,  0.000000000000000 ]
    mass: 63.546000
  - symbol: In # 2
    coordinates: [  0.750000000000000,  0.750000000000000,  0.750000000000000 ]
    mass: 114.818000
  - symbol: In # 3
    coordinates: [  0.250000000000000,  0.250000000000000,  0.250000000000000 ]
    mass: 114.818000
  reciprocal_lattice: # without 2pi
  - [    -0.082537731504924,     0.082537731504924,     0.082537731504924 ] # a*
  - [     0.082537731504924,    -0.082537731504924,     0.082537731504924 ] # b*
  - [     0.082537731504924,     0.082537731504924,    -0.082537731504924 ] # c*

unit_cell:
  lattice:
  - [    12.115671000000001,     0.000000000000000,     0.000000000000000 ] # a
  - [     0.000000000000000,    12.115671000000001,     0.000000000000000 ] # b
  - [     0.000000000000000,     0.000000000000000,    12.115671000000001 ] # c
  points:
  - symbol: Cu # 1
    coordinates: [  0.000000000000000,  0.000000000000000,  0.000000000000000 ]
    mass: 63.546000
    reduced_to: 1
  - symbol: Cu # 2
    coordinates: [  0.500000000000000,  0.000000000000000,  0.500000000000000 ]
    mass: 63.546000
    reduced_to: 1
  - symbol: Cu # 3
    coordinates: [  0.000000000000000,  0.500000000000000,  0.500000000000000 ]
    mass: 63.546000
    reduced_to: 1
  - symbol: Cu # 4
    coordinates: [  0.500000000000000,  0.500000000000000,  0.000000000000000 ]
    mass: 63.546000
    reduced_to: 1
  - symbol: In # 5
    coordinates: [  0.750000000000000,  0.250000000000000,  0.250000000000000 ]
    mass: 114.818000
    reduced_to: 5
  - symbol: In # 6
    coordinates: [  0.250000000000000,  0.250000000000000,  0.750000000000000 ]
    mass: 114.818000
    reduced_to: 5
  - symbol: In # 7
    coordinates: [  0.750000000000000,  0.750000000000000,  0.750000000000000 ]
    mass: 114.818000
    reduced_to: 5
  - symbol: In # 8
    coordinates: [  0.250000000000000,  0.750000000000000,  0.250000000000000 ]
    mass: 114.818000
    reduced_to: 5
  - symbol: In # 9
    coordinates: [  0.250000000000000,  0.750000000000000,  0.750000000000000 ]
    mass: 114.818000
    reduced_to: 9
  - symbol: In # 10
    coordinates: [  0.750000000000000,  0.750000000000000,  0.250000000000000 ]
    mass: 114.818000
    reduced_to: 9
  - symbol: In # 11
    coordinates: [  0.250000000000000,  0.250000000000000,  0.250000000000000 ]
    mass: 114.818000
    reduced_to: 9
  - symbol: In # 12
    coordinates: [  0.750000000000000,  0.250000000000000,  0.750000000000000 ]
    mass: 114.818000
    reduced_to: 9

supercell:
  lattice:
  - [    24.231342000000001,     0.000000000000000,     0.000000000000000 ] # a
  - [     0.000000000000000,    24.231342000000001,     0.000000000000000 ] # b
  - [     0.000000000000000,     0.000000000000000,    24.231342000000001 ] # c
  points:
  - symbol: Cu # 1
    coordinates: [  0.000000000000000,  0.000000000000000,  0.000000000000000 ]
    mass: 63.546000
    reduced_to: 1
  - symbol: Cu # 2
    coordinates: [  0.500000000000000,  0.000000000000000,  0.000000000000000 ]
    mass: 63.546000
    reduced_to: 1
  - symbol: Cu # 3
    coordinates: [  0.000000000000000,  0.500000000000000,  0.000000000000000 ]
    mass: 63.546000
    reduced_to: 1
  - symbol: Cu # 4
    coordinates: [  0.500000000000000,  0.500000000000000,  0.000000000000000 ]
    mass: 63.546000
    reduced_to: 1
  - symbol: Cu # 5
    coordinates: [  0.000000000000000,  0.000000000000000,  0.500000000000000 ]
    mass: 63.546000
    reduced_to: 1
  - symbol: Cu # 6
    coordinates: [  0.500000000000000,  0.000000000000000,  0.500000000000000 ]
    mass: 63.546000
    reduced_to: 1
  - symbol: Cu # 7
    coordinates: [  0.000000000000000,  0.500000000000000,  0.500000000000000 ]
    mass: 63.546000
    reduced_to: 1
  - symbol: Cu # 8
    coordinates: [  0.500000000000000,  0.500000000000000,  0.500000000000000 ]
    mass: 63.546000
    reduced_to: 1
  - symbol: Cu # 9
    coordinates: [  0.250000000000000,  0.000000000000000,  0.250000000000000 ]
    mass: 63.546000
    reduced_to: 1
  - symbol: Cu # 10
    coordinates: [  0.750000000000000,  0.000000000000000,  0.250000000000000 ]
    mass: 63.546000
    reduced_to: 1
  - symbol: Cu # 11
    coordinates: [  0.250000000000000,  0.500000000000000,  0.250000000000000 ]
    mass: 63.546000
    reduced_to: 1
  - symbol: Cu # 12
    coordinates: [  0.750000000000000,  0.500000000000000,  0.250000000000000 ]
    mass: 63.546000
    reduced_to: 1
  - symbol: Cu # 13
    coordinates: [  0.250000000000000,  0.000000000000000,  0.750000000000000 ]
    mass: 63.546000
    reduced_to: 1
  - symbol: Cu # 14
    coordinates: [  0.750000000000000,  0.000000000000000,  0.750000000000000 ]
    mass: 63.546000
    reduced_to: 1
  - symbol: Cu # 15
    coordinates: [  0.250000000000000,  0.500000000000000,  0.750000000000000 ]
    mass: 63.546000
    reduced_to: 1
  - symbol: Cu # 16
    coordinates: [  0.750000000000000,  0.500000000000000,  0.750000000000000 ]
    mass: 63.546000
    reduced_to: 1
  - symbol: Cu # 17
    coordinates: [  0.000000000000000,  0.250000000000000,  0.250000000000000 ]
    mass: 63.546000
    reduced_to: 1
  - symbol: Cu # 18
    coordinates: [  0.500000000000000,  0.250000000000000,  0.250000000000000 ]
    mass: 63.546000
    reduced_to: 1
  - symbol: Cu # 19
    coordinates: [  0.000000000000000,  0.750000000000000,  0.250000000000000 ]
    mass: 63.546000
    reduced_to: 1
  - symbol: Cu # 20
    coordinates: [  0.500000000000000,  0.750000000000000,  0.250000000000000 ]
    mass: 63.546000
    reduced_to: 1
  - symbol: Cu # 21
    coordinates: [  0.000000000000000,  0.250000000000000,  0.750000000000000 ]
    mass: 63.546000
    reduced_to: 1
  - symbol: Cu # 22
    coordinates: [  0.500000000000000,  0.250000000000000,  0.750000000000000 ]
    mass: 63.546000
    reduced_to: 1
  - symbol: Cu # 23
    coordinates: [  0.000000000000000,  0.750000000000000,  0.750000000000000 ]
    mass: 63.546000
    reduced_to: 1
  - symbol: Cu # 24
    coordinates: [  0.500000000000000,  0.750000000000000,  0.750000000000000 ]
    mass: 63.546000
    reduced_to: 1
  - symbol: Cu # 25
    coordinates: [  0.250000000000000,  0.250000000000000,  0.000000000000000 ]
    mass: 63.546000
    reduced_to: 1
  - symbol: Cu # 26
    coordinates: [  0.750000000000000,  0.250000000000000,  0.000000000000000 ]
    mass: 63.546000
    reduced_to: 1
  - symbol: Cu # 27
    coordinates: [  0.250000000000000,  0.750000000000000,  0.000000000000000 ]
    mass: 63.546000
    reduced_to: 1
  - symbol: Cu # 28
    coordinates: [  0.750000000000000,  0.750000000000000,  0.000000000000000 ]
    mass: 63.546000
    reduced_to: 1
  - symbol: Cu # 29
    coordinates: [  0.250000000000000,  0.250000000000000,  0.500000000000000 ]
    mass: 63.546000
    reduced_to: 1
  - symbol: Cu # 30
    coordinates: [  0.750000000000000,  0.250000000000000,  0.500000000000000 ]
    mass: 63.546000
    reduced_to: 1
  - symbol: Cu # 31
    coordinates: [  0.250000000000000,  0.750000000000000,  0.500000000000000 ]
    mass: 63.546000
    reduced_to: 1
  - symbol: Cu # 32
    coordinates: [  0.750000000000000,  0.750000000000000,  0.500000000000000 ]
    mass: 63.546000
    reduced_to: 1
  - symbol: In # 33
    coordinates: [  0.375000000000000,  0.125000000000000,  0.125000000000000 ]
    mass: 114.818000
    reduced_to: 33
  - symbol: In # 34
    coordinates: [  0.875000000000000,  0.125000000000000,  0.125000000000000 ]
    mass: 114.818000
    reduced_to: 33
  - symbol: In # 35
    coordinates: [  0.375000000000000,  0.625000000000000,  0.125000000000000 ]
    mass: 114.818000
    reduced_to: 33
  - symbol: In # 36
    coordinates: [  0.875000000000000,  0.625000000000000,  0.125000000000000 ]
    mass: 114.818000
    reduced_to: 33
  - symbol: In # 37
    coordinates: [  0.375000000000000,  0.125000000000000,  0.625000000000000 ]
    mass: 114.818000
    reduced_to: 33
  - symbol: In # 38
    coordinates: [  0.875000000000000,  0.125000000000000,  0.625000000000000 ]
    mass: 114.818000
    reduced_to: 33
  - symbol: In # 39
    coordinates: [  0.375000000000000,  0.625000000000000,  0.625000000000000 ]
    mass: 114.818000
    reduced_to: 33
  - symbol: In # 40
    coordinates: [  0.875000000000000,  0.625000000000000,  0.625000000000000 ]
    mass: 114.818000
    reduced_to: 33
  - symbol: In # 41
    coordinates: [  0.125000000000000,  0.125000000000000,  0.375000000000000 ]
    mass: 114.818000
    reduced_to: 33
  - symbol: In # 42
    coordinates: [  0.625000000000000,  0.125000000000000,  0.375000000000000 ]
    mass: 114.818000
    reduced_to: 33
  - symbol: In # 43
    coordinates: [  0.125000000000000,  0.625000000000000,  0.375000000000000 ]
    mass: 114.818000
    reduced_to: 33
  - symbol: In # 44
    coordinates: [  0.625000000000000,  0.625000000000000,  0.375000000000000 ]
    mass: 114.818000
    reduced_to: 33
  - symbol: In # 45
    coordinates: [  0.125000000000000,  0.125000000000000,  0.875000000000000 ]
    mass: 114.818000
    reduced_to: 33
  - symbol: In # 46
    coordinates: [  0.625000000000000,  0.125000000000000,  0.875000000000000 ]
    mass: 114.818000
    reduced_to: 33
  - symbol: In # 47
    coordinates: [  0.125000000000000,  0.625000000000000,  0.875000000000000 ]
    mass: 114.818000
    reduced_to: 33
  - symbol: In # 48
    coordinates: [  0.625000000000000,  0.625000000000000,  0.875000000000000 ]
    mass: 114.818000
    reduced_to: 33
  - symbol: In # 49
    coordinates: [  0.375000000000000,  0.375000000000000,  0.375000000000000 ]
    mass: 114.818000
    reduced_to: 33
  - symbol: In # 50
    coordinates: [  0.875000000000000,  0.375000000000000,  0.375000000000000 ]
    mass: 114.818000
    reduced_to: 33
  - symbol: In # 51
    coordinates: [  0.375000000000000,  0.875000000000000,  0.375000000000000 ]
    mass: 114.818000
    reduced_to: 33
  - symbol: In # 52
    coordinates: [  0.875000000000000,  0.875000000000000,  0.375000000000000 ]
    mass: 114.818000
    reduced_to: 33
  - symbol: In # 53
    coordinates: [  0.375000000000000,  0.375000000000000,  0.875000000000000 ]
    mass: 114.818000
    reduced_to: 33
  - symbol: In # 54
    coordinates: [  0.875000000000000,  0.375000000000000,  0.875000000000000 ]
    mass: 114.818000
    reduced_to: 33
  - symbol: In # 55
    coordinates: [  0.375000000000000,  0.875000000000000,  0.875000000000000 ]
    mass: 114.818000
    reduced_to: 33
  - symbol: In # 56
    coordinates: [  0.875000000000000,  0.875000000000000,  0.875000000000000 ]
    mass: 114.818000
    reduced_to: 33
  - symbol: In # 57
    coordinates: [  0.125000000000000,  0.375000000000000,  0.125000000000000 ]
    mass: 114.818000
    reduced_to: 33
  - symbol: In # 58
    coordinates: [  0.625000000000000,  0.375000000000000,  0.125000000000000 ]
    mass: 114.818000
    reduced_to: 33
  - symbol: In # 59
    coordinates: [  0.125000000000000,  0.875000000000000,  0.125000000000000 ]
    mass: 114.818000
    reduced_to: 33
  - symbol: In # 60
    coordinates: [  0.625000000000000,  0.875000000000000,  0.125000000000000 ]
    mass: 114.818000
    reduced_to: 33
  - symbol: In # 61
    coordinates: [  0.125000000000000,  0.375000000000000,  0.625000000000000 ]
    mass: 114.818000
    reduced_to: 33
  - symbol: In # 62
    coordinates: [  0.625000000000000,  0.375000000000000,  0.625000000000000 ]
    mass: 114.818000
    reduced_to: 33
  - symbol: In # 63
    coordinates: [  0.125000000000000,  0.875000000000000,  0.625000000000000 ]
    mass: 114.818000
    reduced_to: 33
  - symbol: In # 64
    coordinates: [  0.625000000000000,  0.875000000000000,  0.625000000000000 ]
    mass: 114.818000
    reduced_to: 33
  - symbol: In # 65
    coordinates: [  0.125000000000000,  0.375000000000000,  0.375000000000000 ]
    mass: 114.818000
    reduced_to: 65
  - symbol: In # 66
    coordinates: [  0.625000000000000,  0.375000000000000,  0.375000000000000 ]
    mass: 114.818000
    reduced_to: 65
  - symbol: In # 67
    coordinates: [  0.125000000000000,  0.875000000000000,  0.375000000000000 ]
    mass: 114.818000
    reduced_to: 65
  - symbol: In # 68
    coordinates: [  0.625000000000000,  0.875000000000000,  0.375000000000000 ]
    mass: 114.818000
    reduced_to: 65
  - symbol: In # 69
    coordinates: [  0.125000000000000,  0.375000000000000,  0.875000000000000 ]
    mass: 114.818000
    reduced_to: 65
  - symbol: In # 70
    coordinates: [  0.625000000000000,  0.375000000000000,  0.875000000000000 ]
    mass: 114.818000
    reduced_to: 65
  - symbol: In # 71
    coordinates: [  0.125000000000000,  0.875000000000000,  0.875000000000000 ]
    mass: 114.818000
    reduced_to: 65
  - symbol: In # 72
    coordinates: [  0.625000000000000,  0.875000000000000,  0.875000000000000 ]
    mass: 114.818000
    reduced_to: 65
  - symbol: In # 73
    coordinates: [  0.375000000000000,  0.375000000000000,  0.125000000000000 ]
    mass: 114.818000
    reduced_to: 65
  - symbol: In # 74
    coordinates: [  0.875000000000000,  0.375000000000000,  0.125000000000000 ]
    mass: 114.818000
    reduced_to: 65
  - symbol: In # 75
    coordinates: [  0.375000000000000,  0.875000000000000,  0.125000000000000 ]
    mass: 114.818000
    reduced_to: 65
  - symbol: In # 76
    coordinates: [  0.875000000000000,  0.875000000000000,  0.125000000000000 ]
    mass: 114.818000
    reduced_to: 65
  - symbol: In # 77
    coordinates: [  0.375000000000000,  0.375000000000000,  0.625000000000000 ]
    mass: 114.818000
    reduced_to: 65
  - symbol: In # 78
    coordinates: [  0.875000000000000,  0.375000000000000,  0.625000000000000 ]
    mass: 114.818000
    reduced_to: 65
  - symbol: In # 79
    coordinates: [  0.375000000000000,  0.875000000000000,  0.625000000000000 ]
    mass: 114.818000
    reduced_to: 65
  - symbol: In # 80
    coordinates: [  0.875000000000000,  0.875000000000000,  0.625000000000000 ]
    mass: 114.818000
    reduced_to: 65
  - symbol: In # 81
    coordinates: [  0.125000000000000,  0.125000000000000,  0.125000000000000 ]
    mass: 114.818000
    reduced_to: 65
  - symbol: In # 82
    coordinates: [  0.625000000000000,  0.125000000000000,  0.125000000000000 ]
    mass: 114.818000
    reduced_to: 65
  - symbol: In # 83
    coordinates: [  0.125000000000000,  0.625000000000000,  0.125000000000000 ]
    mass: 114.818000
    reduced_to: 65
  - symbol: In # 84
    coordinates: [  0.625000000000000,  0.625000000000000,  0.125000000000000 ]
    mass: 114.818000
    reduced_to: 65
  - symbol: In # 85
    coordinates: [  0.125000000000000,  0.125000000000000,  0.625000000000000 ]
    mass: 114.818000
    reduced_to: 65
  - symbol: In # 86
    coordinates: [  0.625000000000000,  0.125000000000000,  0.625000000000000 ]
    mass: 114.818000
    reduced_to: 65
  - symbol: In # 87
    coordinates: [  0.125000000000000,  0.625000000000000,  0.625000000000000 ]
    mass: 114.818000
    reduced_to: 65
  - symbol: In # 88
    coordinates: [  0.625000000000000,  0.625000000000000,  0.625000000000000 ]
    mass: 114.818000
    reduced_to: 65
  - symbol: In # 89
    coordinates: [  0.375000000000000,  0.125000000000000,  0.375000000000000 ]
    mass: 114.818000
    reduced_to: 65
  - symbol: In # 90
    coordinates: [  0.875000000000000,  0.125000000000000,  0.375000000000000 ]
    mass: 114.818000
    reduced_to: 65
  - symbol: In # 91
    coordinates: [  0.375000000000000,  0.625000000000000,  0.375000000000000 ]
    mass: 114.818000
    reduced_to: 65
  - symbol: In # 92
    coordinates: [  0.875000000000000,  0.625000000000000,  0.375000000000000 ]
    mass: 114.818000
    reduced_to: 65
  - symbol: In # 93
    coordinates: [  0.375000000000000,  0.125000000000000,  0.875000000000000 ]
    mass: 114.818000
    reduced_to: 65
  - symbol: In # 94
    coordinates: [  0.875000000000000,  0.125000000000000,  0.875000000000000 ]
    mass: 114.818000
    reduced_to: 65
  - symbol: In # 95
    coordinates: [  0.375000000000000,  0.625000000000000,  0.875000000000000 ]
    mass: 114.818000
    reduced_to: 65
  - symbol: In # 96
    coordinates: [  0.875000000000000,  0.625000000000000,  0.875000000000000 ]
    mass: 114.818000
    reduced_to: 65
