
     Program PWSCF v.7.2 starts on  8May2023 at  8:33: 7 

     This program is part of the open-source Quantum ESPRESSO suite
     for quantum simulation of materials; please cite
         "P. Giannozzi et al., J. Phys.:Condens. Matter 21 395502 (2009);
         "P. Giannozzi et al., J. Phys.:Condens. Matter 29 465901 (2017);
         "P. Giannozzi et al., J. Chem. Phys. 152 154105 (2020);
          URL http://www.quantum-espresso.org", 
     in publications or presentations arising from this work. More details at
     http://www.quantum-espresso.org/quote

     Parallel version (MPI), running on    20 processors

     MPI processes distributed on     1 nodes
     1570 MiB available memory on the printing compute node when the environment starts

     Reading input from ./DFTData/AgIn2/relax/Relax_V700.00_1.in
Warning: card &CELL ignored
Warning: card / ignored

     Current dimensions of program PWSCF are:
     Max number of different atomic species (ntypx) = 10
     Max number of k-points (npk) =  40000
     Max angular momentum in pseudopotentials (lmaxx) =  4
     file In.pbe-dn-rrkjus_psl.1.0.0.UPF: wavefunction(s)  5S 4D renormalized

     R & G space division:  proc/nbgrp/npool/nimage =      20
     Subspace diagonalization in iterative solution of the eigenvalue problem:
     a serial algorithm will be used


     Parallelization info
     --------------------
     sticks:   dense  smooth     PW     G-vecs:    dense   smooth      PW
     Min         147     147     43                 4726     4726     761
     Max         148     148     44                 4727     4727     764
     Sum        2959    2959    863                94531    94531   15257

     Using Slab Decomposition



     bravais-lattice index     =            7
     lattice parameter (alat)  =      11.9798  a.u.
     unit-cell volume          =     700.0000 (a.u.)^3
     number of atoms/cell      =            6
     number of atomic types    =            2
     number of electrons       =        74.00
     number of Kohn-Sham states=           37
     kinetic-energy cutoff     =     100.0000  Ry
     charge density cutoff     =     400.0000  Ry
     scf convergence threshold =      1.0E-06
     mixing beta               =       0.7000
     number of iterations used =            8  plain     mixing
     energy convergence thresh.=      1.0E-04
     force convergence thresh. =      1.0E-02
     Exchange-correlation= PBE
                           (   1   4   3   4   0   0   0)
     nstep                     =           50


     celldm(1)=  11.979823  celldm(2)=   0.000000  celldm(3)=   0.814286
     celldm(4)=   0.000000  celldm(5)=   0.000000  celldm(6)=   0.000000

     crystal axes: (cart. coord. in units of alat)
               a(1) = (   0.500000  -0.500000   0.407143 )  
               a(2) = (   0.500000   0.500000   0.407143 )  
               a(3) = (  -0.500000  -0.500000   0.407143 )  

     reciprocal axes: (cart. coord. in units 2 pi/alat)
               b(1) = (  1.000000 -1.000000  0.000000 )  
               b(2) = (  0.000000  1.000000  1.228070 )  
               b(3) = ( -1.000000  0.000000  1.228070 )  


     PseudoPot. # 1 for Ag read from file:
     ./pseudos/Ag.pbe-n-rrkjus_psl.1.0.0.UPF
     MD5 check sum: d841cbfac2b0861aec33b46768a516bf
     Pseudo is Ultrasoft + core correction, Zval = 11.0
     Generated using &quot;atomic&quot; code by A. Dal Corso  v.6.2.2
     Using radial grid of 1237 points,  6 beta functions with: 
                l(1) =   0
                l(2) =   0
                l(3) =   1
                l(4) =   1
                l(5) =   2
                l(6) =   2
     Q(r) pseudized with 0 coefficients 


     PseudoPot. # 2 for In read from file:
     ./pseudos/In.pbe-dn-rrkjus_psl.1.0.0.UPF
     MD5 check sum: 7267d4f9f57825930b619e54710f1f3b
     Pseudo is Ultrasoft + core correction, Zval = 13.0
     Generated using &quot;atomic&quot; code by A. Dal Corso  v.6.3
     Using radial grid of 1241 points,  6 beta functions with: 
                l(1) =   0
                l(2) =   0
                l(3) =   1
                l(4) =   1
                l(5) =   2
                l(6) =   2
     Q(r) pseudized with 0 coefficients 


     atomic species   valence    mass     pseudopotential
        Ag            11.00   107.86820     Ag( 1.00)
        In            13.00   114.81800     In( 1.00)

     16 Sym. Ops., with inversion, found ( 8 have fractional translation)



   Cartesian axes

     site n.     atom                  positions (alat units)
         1           Ag  tau(   1) = (   0.0000000   0.0000000   0.2035714  )
         2           Ag  tau(   2) = (   0.0000000   0.0000000  -0.2035714  )
         3           In  tau(   3) = (   0.1506920   0.6506920   0.0000000  )
         4           In  tau(   4) = (  -0.1506920   0.3493080   0.0000000  )
         5           In  tau(   5) = (   0.3493085   0.1506915   0.0000004  )
         6           In  tau(   6) = (   0.6506915  -0.1506915  -0.0000004  )

     number of k points=   102

     Number of k-points >= 100: set verbosity='high' to print them.

     Dense  grid:    94531 G-vectors     FFT dimensions: (  64,  64,  64)

     Estimated max dynamical RAM per process >      55.98 MB

     Estimated total dynamical RAM >       1.09 GB

     Initial potential from superposition of free atoms

     starting charge      73.9843, renormalised to      74.0000
     Starting wfcs are   54 randomized atomic wfcs

     total cpu time spent up to now is       27.9 secs

     Self-consistent Calculation

     iteration #  1     ecut=   100.00 Ry     beta= 0.70
     Davidson diagonalization with overlap
     ethr =  1.00E-02,  avg # of iterations =  2.0

     Threshold (ethr) on eigenvalues was too large:
     Diagonalizing with lowered threshold

     Davidson diagonalization with overlap
     ethr =  6.91E-05,  avg # of iterations =  6.3

     total cpu time spent up to now is      163.3 secs

     total energy              =    -729.28441639 Ry
     estimated scf accuracy    <       0.08906341 Ry

     iteration #  2     ecut=   100.00 Ry     beta= 0.70
     Davidson diagonalization with overlap
     ethr =  1.20E-04,  avg # of iterations =  2.4

     total cpu time spent up to now is      227.9 secs

     total energy              =    -729.30199872 Ry
     estimated scf accuracy    <       0.02266251 Ry

     iteration #  3     ecut=   100.00 Ry     beta= 0.70
     Davidson diagonalization with overlap
     ethr =  3.06E-05,  avg # of iterations =  4.4

     total cpu time spent up to now is      286.3 secs

     total energy              =    -729.30755247 Ry
     estimated scf accuracy    <       0.00383745 Ry

     iteration #  4     ecut=   100.00 Ry     beta= 0.70
     Davidson diagonalization with overlap
     ethr =  5.19E-06,  avg # of iterations =  4.4

     total cpu time spent up to now is      346.8 secs

     total energy              =    -729.30855377 Ry
     estimated scf accuracy    <       0.00010943 Ry

     iteration #  5     ecut=   100.00 Ry     beta= 0.70
     Davidson diagonalization with overlap
     ethr =  1.48E-07,  avg # of iterations =  6.8

     total cpu time spent up to now is      427.7 secs

     total energy              =    -729.30860896 Ry
     estimated scf accuracy    <       0.00002816 Ry

     iteration #  6     ecut=   100.00 Ry     beta= 0.70
     Davidson diagonalization with overlap
     c_bands:  2 eigenvalues not converged
     ethr =  3.81E-08,  avg # of iterations =  4.4

     total cpu time spent up to now is      499.1 secs

     End of self-consistent calculation

     Number of k-points >= 100: set verbosity='high' to print the bands.

     highest occupied level (ev):    18.8783

!    total energy              =    -729.30862991 Ry
     estimated scf accuracy    <       0.00000047 Ry

     The total energy is the sum of the following terms:
     one-electron contribution =     -85.52474227 Ry
     hartree contribution      =     124.49797653 Ry
     xc contribution           =    -230.56810744 Ry
     ewald contribution        =    -537.71375673 Ry

     convergence has been achieved in   6 iterations

     Forces acting on atoms (cartesian axes, Ry/au):

     atom    1 type  1   force =    -0.00000000    0.00000000    0.00000000
     atom    2 type  1   force =     0.00000000    0.00000000   -0.00000000
     atom    3 type  2   force =     0.00344801    0.00344801   -0.00000000
     atom    4 type  2   force =    -0.00344801   -0.00344801    0.00000000
     atom    5 type  2   force =    -0.00344801    0.00344801    0.00000000
     atom    6 type  2   force =     0.00344801   -0.00344801    0.00000000
     The non-local contrib.  to forces
     atom    1 type  1   force =     0.00000000   -0.00000000   -0.00000000
     atom    2 type  1   force =    -0.00000000    0.00000000    0.00000000
     atom    3 type  2   force =     0.09059267    0.09059267    0.00000000
     atom    4 type  2   force =    -0.09059267   -0.09059267    0.00000000
     atom    5 type  2   force =    -0.09059267    0.09059267    0.00000000
     atom    6 type  2   force =     0.09059267   -0.09059267   -0.00000000
     The ionic contribution  to forces
     atom    1 type  1   force =    -0.00002534   -0.00002534   -0.00000000
     atom    2 type  1   force =     0.00002534    0.00002534    0.00000000
     atom    3 type  2   force =    -0.74051654   -0.74051654   -0.00000000
     atom    4 type  2   force =     0.74051654    0.74051654   -0.00000000
     atom    5 type  2   force =     0.74041954   -0.74041954   -0.00004995
     atom    6 type  2   force =    -0.74041954    0.74041954    0.00004995
     The local contribution  to forces
     atom    1 type  1   force =     0.00000000   -0.00000000   -0.00000000
     atom    2 type  1   force =    -0.00000000    0.00000000    0.00000000
     atom    3 type  2   force =     0.65670224    0.65670224    0.00000000
     atom    4 type  2   force =    -0.65670224   -0.65670224   -0.00000000
     atom    5 type  2   force =    -0.65711381    0.65711381   -0.00033737
     atom    6 type  2   force =     0.65711381   -0.65711381    0.00033737
     The core correction contribution to forces
     atom    1 type  1   force =    -0.00000000   -0.00000000    0.00000000
     atom    2 type  1   force =     0.00000000    0.00000000   -0.00000000
     atom    3 type  2   force =    -0.00401757   -0.00401757   -0.00000000
     atom    4 type  2   force =     0.00401757    0.00401757    0.00000000
     atom    5 type  2   force =     0.00397913   -0.00397913   -0.00003135
     atom    6 type  2   force =    -0.00397913    0.00397913    0.00003135
     The Hubbard contrib.    to forces
     atom    1 type  1   force =     0.00000000    0.00000000    0.00000000
     atom    2 type  1   force =     0.00000000    0.00000000    0.00000000
     atom    3 type  2   force =     0.00000000    0.00000000    0.00000000
     atom    4 type  2   force =     0.00000000    0.00000000    0.00000000
     atom    5 type  2   force =     0.00000000    0.00000000    0.00000000
     atom    6 type  2   force =     0.00000000    0.00000000    0.00000000
     The SCF correction term to forces
     atom    1 type  1   force =     0.00000007    0.00000007    0.00000000
     atom    2 type  1   force =    -0.00000007   -0.00000007   -0.00000000
     atom    3 type  2   force =     0.00041417    0.00041417    0.00000000
     atom    4 type  2   force =    -0.00041417   -0.00041417   -0.00000000
     atom    5 type  2   force =    -0.00041324    0.00041324    0.00000068
     atom    6 type  2   force =     0.00041324   -0.00041324   -0.00000068

     Total force =     0.009752     Total SCF correction =     0.001170
     SCF correction compared to forces is large: reduce conv_thr to get better values

     BFGS Geometry Optimization
     Energy error            =      0.0E+00 Ry
     Gradient error          =      3.4E-03 Ry/Bohr

     bfgs converged in   1 scf cycles and   0 bfgs steps
     (criteria: energy <  1.0E-04 Ry, force <  1.0E-02 Ry/Bohr)

     End of BFGS Geometry Optimization

     Final energy             =    -729.3086299141 Ry
Begin final coordinates

ATOMIC_POSITIONS (crystal)
Ag            0.0000000000        0.2500000000        0.2500000000
Ag            0.0000000000       -0.2500000000       -0.2500000000
In           -0.5000000000        0.6506920000       -0.1506920000
In           -0.5000000000        0.3493080000        0.1506920000
In            0.1986170000        0.1506920000       -0.3493080000
In            0.8013830000       -0.1506920000       -0.6506920000
End final coordinates



     Writing all to output data dir ./tmp/AgIn2_Relax.save/

     init_run     :      8.32s CPU     26.09s WALL (       1 calls)
     electrons    :    150.22s CPU    471.20s WALL (       1 calls)
     forces       :      3.52s CPU     11.37s WALL (       1 calls)

     Called by init_run:
     wfcinit      :      7.23s CPU     22.98s WALL (       1 calls)
     potinit      :      0.17s CPU      0.45s WALL (       1 calls)
     hinit0       :      0.49s CPU      1.44s WALL (       1 calls)

     Called by electrons:
     c_bands      :    134.23s CPU    422.19s WALL (       7 calls)
     sum_band     :     15.49s CPU     47.42s WALL (       7 calls)
     v_of_rho     :      0.13s CPU      0.41s WALL (       7 calls)
     newd         :      0.45s CPU      1.30s WALL (       7 calls)
     mix_rho      :      0.01s CPU      0.06s WALL (       7 calls)

     Called by c_bands:
     init_us_2    :      1.03s CPU      1.31s WALL (    1632 calls)
     init_us_2:cp :      1.02s CPU      1.31s WALL (    1632 calls)
     cegterg      :    130.58s CPU    410.52s WALL (     714 calls)

     Called by *egterg:
     cdiaghg      :     10.88s CPU     37.54s WALL (    3745 calls)
     h_psi        :     79.56s CPU    251.30s WALL (    3949 calls)
     s_psi        :      7.30s CPU     10.17s WALL (    3949 calls)
     g_psi        :      0.16s CPU      0.29s WALL (    3133 calls)

     Called by h_psi:
     h_psi:calbec :     15.92s CPU     58.68s WALL (    3949 calls)
     vloc_psi     :     55.87s CPU    183.09s WALL (    3949 calls)
     add_vuspsi   :      7.42s CPU      9.10s WALL (    3949 calls)

     General routines
     calbec       :     22.67s CPU     78.87s WALL (    5071 calls)
     fft          :      0.23s CPU      0.93s WALL (      89 calls)
     ffts         :      0.01s CPU      0.11s WALL (       7 calls)
     fftw         :     56.55s CPU    205.90s WALL (  191178 calls)

     Parallel routines

     PWSCF        :   2m44.74s CPU   8m47.27s WALL


   This run was terminated on:   8:41:54   8May2023            

=------------------------------------------------------------------------------=
   JOB DONE.
=------------------------------------------------------------------------------=
Note: The following floating-point exceptions are signalling: IEEE_INVALID_FLAG
