
     Program PWSCF v.7.2 starts on  8May2023 at 11:52:39 

     This program is part of the open-source Quantum ESPRESSO suite
     for quantum simulation of materials; please cite
         "P. Giannozzi et al., J. Phys.:Condens. Matter 21 395502 (2009);
         "P. Giannozzi et al., J. Phys.:Condens. Matter 29 465901 (2017);
         "P. Giannozzi et al., J. Chem. Phys. 152 154105 (2020);
          URL http://www.quantum-espresso.org", 
     in publications or presentations arising from this work. More details at
     http://www.quantum-espresso.org/quote

     Parallel version (MPI), running on    20 processors

     MPI processes distributed on     1 nodes
     1583 MiB available memory on the printing compute node when the environment starts

     Reading input from ./DFTData/AgIn2/relax/Relax_V740.00_0.in
Warning: card &CELL ignored
Warning: card / ignored

     Current dimensions of program PWSCF are:
     Max number of different atomic species (ntypx) = 10
     Max number of k-points (npk) =  40000
     Max angular momentum in pseudopotentials (lmaxx) =  4
     file In.pbe-dn-rrkjus_psl.1.0.0.UPF: wavefunction(s)  5S 4D renormalized

     R & G space division:  proc/nbgrp/npool/nimage =      20
     Subspace diagonalization in iterative solution of the eigenvalue problem:
     a serial algorithm will be used


     Parallelization info
     --------------------
     sticks:   dense  smooth     PW     G-vecs:    dense   smooth      PW
     Min         153     153     45                 5003     5003     814
     Max         154     154     46                 5005     5005     817
     Sum        3061    3061    919               100087   100087   16313

     Using Slab Decomposition



     bravais-lattice index     =            7
     lattice parameter (alat)  =      12.2038  a.u.
     unit-cell volume          =     740.0000 (a.u.)^3
     number of atoms/cell      =            6
     number of atomic types    =            2
     number of electrons       =        74.00
     number of Kohn-Sham states=           37
     kinetic-energy cutoff     =     100.0000  Ry
     charge density cutoff     =     400.0000  Ry
     scf convergence threshold =      1.0E-06
     mixing beta               =       0.7000
     number of iterations used =            8  plain     mixing
     energy convergence thresh.=      1.0E-04
     force convergence thresh. =      1.0E-02
     Exchange-correlation= PBE
                           (   1   4   3   4   0   0   0)
     nstep                     =           50


     celldm(1)=  12.203797  celldm(2)=   0.000000  celldm(3)=   0.814286
     celldm(4)=   0.000000  celldm(5)=   0.000000  celldm(6)=   0.000000

     crystal axes: (cart. coord. in units of alat)
               a(1) = (   0.500000  -0.500000   0.407143 )  
               a(2) = (   0.500000   0.500000   0.407143 )  
               a(3) = (  -0.500000  -0.500000   0.407143 )  

     reciprocal axes: (cart. coord. in units 2 pi/alat)
               b(1) = (  1.000000 -1.000000  0.000000 )  
               b(2) = (  0.000000  1.000000  1.228070 )  
               b(3) = ( -1.000000  0.000000  1.228070 )  


     PseudoPot. # 1 for Ag read from file:
     ./pseudos/Ag.pbe-n-rrkjus_psl.1.0.0.UPF
     MD5 check sum: d841cbfac2b0861aec33b46768a516bf
     Pseudo is Ultrasoft + core correction, Zval = 11.0
     Generated using &quot;atomic&quot; code by A. Dal Corso  v.6.2.2
     Using radial grid of 1237 points,  6 beta functions with: 
                l(1) =   0
                l(2) =   0
                l(3) =   1
                l(4) =   1
                l(5) =   2
                l(6) =   2
     Q(r) pseudized with 0 coefficients 


     PseudoPot. # 2 for In read from file:
     ./pseudos/In.pbe-dn-rrkjus_psl.1.0.0.UPF
     MD5 check sum: 7267d4f9f57825930b619e54710f1f3b
     Pseudo is Ultrasoft + core correction, Zval = 13.0
     Generated using &quot;atomic&quot; code by A. Dal Corso  v.6.3
     Using radial grid of 1241 points,  6 beta functions with: 
                l(1) =   0
                l(2) =   0
                l(3) =   1
                l(4) =   1
                l(5) =   2
                l(6) =   2
     Q(r) pseudized with 0 coefficients 


     atomic species   valence    mass     pseudopotential
        Ag            11.00   107.86820     Ag( 1.00)
        In            13.00   114.81800     In( 1.00)

     16 Sym. Ops., with inversion, found ( 8 have fractional translation)



   Cartesian axes

     site n.     atom                  positions (alat units)
         1           Ag  tau(   1) = (   0.0000000   0.0000000   0.2035714  )
         2           Ag  tau(   2) = (   0.0000000   0.0000000  -0.2035714  )
         3           In  tau(   3) = (   0.1506920   0.6506920   0.0000000  )
         4           In  tau(   4) = (  -0.1506920   0.3493080   0.0000000  )
         5           In  tau(   5) = (   0.3493085   0.1506915   0.0000004  )
         6           In  tau(   6) = (   0.6506915  -0.1506915  -0.0000004  )

     number of k points=   102

     Number of k-points >= 100: set verbosity='high' to print them.

     Dense  grid:   100087 G-vectors     FFT dimensions: (  64,  64,  64)

     Estimated max dynamical RAM per process >      58.91 MB

     Estimated total dynamical RAM >       1.15 GB

     Initial potential from superposition of free atoms

     starting charge      73.9843, renormalised to      74.0000
     Starting wfcs are   54 randomized atomic wfcs

     total cpu time spent up to now is       28.4 secs

     Self-consistent Calculation

     iteration #  1     ecut=   100.00 Ry     beta= 0.70
     Davidson diagonalization with overlap
     ethr =  1.00E-02,  avg # of iterations =  2.0

     Threshold (ethr) on eigenvalues was too large:
     Diagonalizing with lowered threshold

     Davidson diagonalization with overlap
     ethr =  6.34E-05,  avg # of iterations =  6.4

     total cpu time spent up to now is      170.2 secs

     total energy              =    -729.37449787 Ry
     estimated scf accuracy    <       0.07991928 Ry

     iteration #  2     ecut=   100.00 Ry     beta= 0.70
     Davidson diagonalization with overlap
     ethr =  1.08E-04,  avg # of iterations =  2.1

     total cpu time spent up to now is      237.1 secs

     total energy              =    -729.39074795 Ry
     estimated scf accuracy    <       0.01657811 Ry

     iteration #  3     ecut=   100.00 Ry     beta= 0.70
     Davidson diagonalization with overlap
     ethr =  2.24E-05,  avg # of iterations =  4.5

     total cpu time spent up to now is      298.2 secs

     total energy              =    -729.39445314 Ry
     estimated scf accuracy    <       0.00317990 Ry

     iteration #  4     ecut=   100.00 Ry     beta= 0.70
     Davidson diagonalization with overlap
     ethr =  4.30E-06,  avg # of iterations =  4.8

     total cpu time spent up to now is      359.9 secs

     total energy              =    -729.39534945 Ry
     estimated scf accuracy    <       0.00017932 Ry

     iteration #  5     ecut=   100.00 Ry     beta= 0.70
     Davidson diagonalization with overlap
     c_bands:  1 eigenvalues not converged
     ethr =  2.42E-07,  avg # of iterations =  5.4

     total cpu time spent up to now is      437.8 secs

     total energy              =    -729.39551267 Ry
     estimated scf accuracy    <       0.00001887 Ry

     iteration #  6     ecut=   100.00 Ry     beta= 0.70
     Davidson diagonalization with overlap
     c_bands:  1 eigenvalues not converged
     c_bands:  1 eigenvalues not converged
     ethr =  2.55E-08,  avg # of iterations =  6.8

     total cpu time spent up to now is      510.1 secs

     total energy              =    -729.39552741 Ry
     estimated scf accuracy    <       0.00000177 Ry

     iteration #  7     ecut=   100.00 Ry     beta= 0.70
     Davidson diagonalization with overlap
     c_bands:  1 eigenvalues not converged
     ethr =  2.39E-09,  avg # of iterations =  5.8

     total cpu time spent up to now is      587.4 secs

     End of self-consistent calculation

     Number of k-points >= 100: set verbosity='high' to print the bands.

     highest occupied level (ev):    17.6040

!    total energy              =    -729.39552821 Ry
     estimated scf accuracy    <       0.00000024 Ry

     The total energy is the sum of the following terms:
     one-electron contribution =    -100.48250083 Ry
     hartree contribution      =     129.26239695 Ry
     xc contribution           =    -230.33021099 Ry
     ewald contribution        =    -527.84521334 Ry

     convergence has been achieved in   7 iterations

     Forces acting on atoms (cartesian axes, Ry/au):

     atom    1 type  1   force =     0.00000000    0.00000000   -0.00000000
     atom    2 type  1   force =    -0.00000000    0.00000000    0.00000000
     atom    3 type  2   force =     0.00345409    0.00345409    0.00000000
     atom    4 type  2   force =    -0.00345409   -0.00345409    0.00000000
     atom    5 type  2   force =    -0.00345409    0.00345409    0.00000000
     atom    6 type  2   force =     0.00345409   -0.00345409   -0.00000000
     The non-local contrib.  to forces
     atom    1 type  1   force =     0.00000000    0.00000000    0.00000000
     atom    2 type  1   force =     0.00000000    0.00000000    0.00000000
     atom    3 type  2   force =     0.08685009    0.08685009   -0.00000000
     atom    4 type  2   force =    -0.08685009   -0.08685009   -0.00000000
     atom    5 type  2   force =    -0.08685009    0.08685009   -0.00000000
     atom    6 type  2   force =     0.08685009   -0.08685009    0.00000000
     The ionic contribution  to forces
     atom    1 type  1   force =    -0.00002441   -0.00002441   -0.00000000
     atom    2 type  1   force =     0.00002441    0.00002441    0.00000000
     atom    3 type  2   force =    -0.71358489   -0.71358489   -0.00000000
     atom    4 type  2   force =     0.71358489    0.71358489   -0.00000000
     atom    5 type  2   force =     0.71349141   -0.71349141   -0.00004813
     atom    6 type  2   force =    -0.71349141    0.71349141    0.00004813
     The local contribution  to forces
     atom    1 type  1   force =     0.00000000    0.00000000    0.00000000
     atom    2 type  1   force =    -0.00000000   -0.00000000    0.00000000
     atom    3 type  2   force =     0.63451907    0.63451907    0.00000000
     atom    4 type  2   force =    -0.63451907   -0.63451907   -0.00000000
     atom    5 type  2   force =    -0.63494173    0.63494173   -0.00034636
     atom    6 type  2   force =     0.63494173   -0.63494173    0.00034636
     The core correction contribution to forces
     atom    1 type  1   force =    -0.00000000   -0.00000000    0.00000000
     atom    2 type  1   force =     0.00000000    0.00000000    0.00000000
     atom    3 type  2   force =    -0.00377998   -0.00377998   -0.00000000
     atom    4 type  2   force =     0.00377998    0.00377998    0.00000000
     atom    5 type  2   force =     0.00374084   -0.00374084   -0.00003191
     atom    6 type  2   force =    -0.00374084    0.00374084    0.00003191
     The Hubbard contrib.    to forces
     atom    1 type  1   force =     0.00000000    0.00000000    0.00000000
     atom    2 type  1   force =     0.00000000    0.00000000    0.00000000
     atom    3 type  2   force =     0.00000000    0.00000000    0.00000000
     atom    4 type  2   force =     0.00000000    0.00000000    0.00000000
     atom    5 type  2   force =     0.00000000    0.00000000    0.00000000
     atom    6 type  2   force =     0.00000000    0.00000000    0.00000000
     The SCF correction term to forces
     atom    1 type  1   force =     0.00000000    0.00000000    0.00000000
     atom    2 type  1   force =    -0.00000000   -0.00000000    0.00000000
     atom    3 type  2   force =    -0.00082780   -0.00082780    0.00000000
     atom    4 type  2   force =     0.00082780    0.00082780   -0.00000000
     atom    5 type  2   force =     0.00082788   -0.00082788    0.00000005
     atom    6 type  2   force =    -0.00082788    0.00082788   -0.00000005

     Total force =     0.009770     Total SCF correction =     0.002341
     SCF correction compared to forces is large: reduce conv_thr to get better values

     BFGS Geometry Optimization
     Energy error            =      0.0E+00 Ry
     Gradient error          =      3.5E-03 Ry/Bohr

     bfgs converged in   1 scf cycles and   0 bfgs steps
     (criteria: energy <  1.0E-04 Ry, force <  1.0E-02 Ry/Bohr)

     End of BFGS Geometry Optimization

     Final energy             =    -729.3955282113 Ry
Begin final coordinates

ATOMIC_POSITIONS (crystal)
Ag            0.0000000000        0.2500000000        0.2500000000
Ag            0.0000000000       -0.2500000000       -0.2500000000
In           -0.5000000000        0.6506920000       -0.1506920000
In           -0.5000000000        0.3493080000        0.1506920000
In            0.1986170000        0.1506920000       -0.3493080000
In            0.8013830000       -0.1506920000       -0.6506920000
End final coordinates



     Writing all to output data dir ./tmp/AgIn2_Relax.save/

     init_run     :      8.55s CPU     26.63s WALL (       1 calls)
     electrons    :    179.41s CPU    559.06s WALL (       1 calls)
     forces       :      3.40s CPU     11.79s WALL (       1 calls)

     Called by init_run:
     wfcinit      :      7.44s CPU     23.35s WALL (       1 calls)
     potinit      :      0.17s CPU      0.48s WALL (       1 calls)
     hinit0       :      0.52s CPU      1.54s WALL (       1 calls)

     Called by electrons:
     c_bands      :    159.78s CPU    500.78s WALL (       8 calls)
     sum_band     :     19.02s CPU     56.42s WALL (       8 calls)
     v_of_rho     :      0.12s CPU      0.42s WALL (       8 calls)
     newd         :      0.52s CPU      1.54s WALL (       8 calls)
     mix_rho      :      0.02s CPU      0.10s WALL (       8 calls)

     Called by c_bands:
     init_us_2    :      1.16s CPU      1.64s WALL (    1836 calls)
     init_us_2:cp :      1.16s CPU      1.64s WALL (    1836 calls)
     cegterg      :    155.52s CPU    486.94s WALL (     816 calls)

     Called by *egterg:
     cdiaghg      :     13.15s CPU     45.47s WALL (    4570 calls)
     h_psi        :     93.14s CPU    294.08s WALL (    4774 calls)
     s_psi        :      8.85s CPU     14.55s WALL (    4774 calls)
     g_psi        :      0.19s CPU      0.35s WALL (    3856 calls)

     Called by h_psi:
     h_psi:calbec :     19.29s CPU     72.10s WALL (    4774 calls)
     vloc_psi     :     64.40s CPU    209.30s WALL (    4774 calls)
     add_vuspsi   :      9.00s CPU     12.07s WALL (    4774 calls)

     General routines
     calbec       :     26.83s CPU     94.88s WALL (    5998 calls)
     fft          :      0.22s CPU      0.89s WALL (     100 calls)
     ffts         :      0.01s CPU      0.10s WALL (       8 calls)
     fftw         :     65.84s CPU    235.44s WALL (  220148 calls)

     Parallel routines

     PWSCF        :   3m14.01s CPU  10m15.60s WALL


   This run was terminated on:  12: 2:54   8May2023            

=------------------------------------------------------------------------------=
   JOB DONE.
=------------------------------------------------------------------------------=
Note: The following floating-point exceptions are signalling: IEEE_INVALID_FLAG
