
     Program PWSCF v.7.2 starts on  8May2023 at 18:15: 0 

     This program is part of the open-source Quantum ESPRESSO suite
     for quantum simulation of materials; please cite
         "P. Giannozzi et al., J. Phys.:Condens. Matter 21 395502 (2009);
         "P. Giannozzi et al., J. Phys.:Condens. Matter 29 465901 (2017);
         "P. Giannozzi et al., J. Chem. Phys. 152 154105 (2020);
          URL http://www.quantum-espresso.org", 
     in publications or presentations arising from this work. More details at
     http://www.quantum-espresso.org/quote

     Parallel version (MPI), running on    20 processors

     MPI processes distributed on     1 nodes
     1968 MiB available memory on the printing compute node when the environment starts

     Reading input from ./DFTData/AgIn2/relax/Relax_V960.52_0.in
Warning: card &CELL ignored
Warning: card / ignored

     Current dimensions of program PWSCF are:
     Max number of different atomic species (ntypx) = 10
     Max number of k-points (npk) =  40000
     Max angular momentum in pseudopotentials (lmaxx) =  4
     file In.pbe-dn-rrkjus_psl.1.0.0.UPF: wavefunction(s)  5S 4D renormalized

     R & G space division:  proc/nbgrp/npool/nimage =      20
     Subspace diagonalization in iterative solution of the eigenvalue problem:
     a serial algorithm will be used


     Parallelization info
     --------------------
     sticks:   dense  smooth     PW     G-vecs:    dense   smooth      PW
     Min         182     182     53                 6496     6496    1034
     Max         183     183     54                 6499     6499    1037
     Sum        3645    3645   1063               129931   129931   20687

     Using Slab Decomposition



     bravais-lattice index     =            7
     lattice parameter (alat)  =      13.3123  a.u.
     unit-cell volume          =     960.5192 (a.u.)^3
     number of atoms/cell      =            6
     number of atomic types    =            2
     number of electrons       =        74.00
     number of Kohn-Sham states=           37
     kinetic-energy cutoff     =     100.0000  Ry
     charge density cutoff     =     400.0000  Ry
     scf convergence threshold =      1.0E-06
     mixing beta               =       0.7000
     number of iterations used =            8  plain     mixing
     energy convergence thresh.=      1.0E-04
     force convergence thresh. =      1.0E-02
     Exchange-correlation= PBE
                           (   1   4   3   4   0   0   0)
     nstep                     =           50


     celldm(1)=  13.312299  celldm(2)=   0.000000  celldm(3)=   0.814286
     celldm(4)=   0.000000  celldm(5)=   0.000000  celldm(6)=   0.000000

     crystal axes: (cart. coord. in units of alat)
               a(1) = (   0.500000  -0.500000   0.407143 )  
               a(2) = (   0.500000   0.500000   0.407143 )  
               a(3) = (  -0.500000  -0.500000   0.407143 )  

     reciprocal axes: (cart. coord. in units 2 pi/alat)
               b(1) = (  1.000000 -1.000000  0.000000 )  
               b(2) = (  0.000000  1.000000  1.228070 )  
               b(3) = ( -1.000000  0.000000  1.228070 )  


     PseudoPot. # 1 for Ag read from file:
     ./pseudos/Ag.pbe-n-rrkjus_psl.1.0.0.UPF
     MD5 check sum: d841cbfac2b0861aec33b46768a516bf
     Pseudo is Ultrasoft + core correction, Zval = 11.0
     Generated using &quot;atomic&quot; code by A. Dal Corso  v.6.2.2
     Using radial grid of 1237 points,  6 beta functions with: 
                l(1) =   0
                l(2) =   0
                l(3) =   1
                l(4) =   1
                l(5) =   2
                l(6) =   2
     Q(r) pseudized with 0 coefficients 


     PseudoPot. # 2 for In read from file:
     ./pseudos/In.pbe-dn-rrkjus_psl.1.0.0.UPF
     MD5 check sum: 7267d4f9f57825930b619e54710f1f3b
     Pseudo is Ultrasoft + core correction, Zval = 13.0
     Generated using &quot;atomic&quot; code by A. Dal Corso  v.6.3
     Using radial grid of 1241 points,  6 beta functions with: 
                l(1) =   0
                l(2) =   0
                l(3) =   1
                l(4) =   1
                l(5) =   2
                l(6) =   2
     Q(r) pseudized with 0 coefficients 


     atomic species   valence    mass     pseudopotential
        Ag            11.00   107.86820     Ag( 1.00)
        In            13.00   114.81800     In( 1.00)

     16 Sym. Ops., with inversion, found ( 8 have fractional translation)



   Cartesian axes

     site n.     atom                  positions (alat units)
         1           Ag  tau(   1) = (   0.0000000   0.0000000   0.2035714  )
         2           Ag  tau(   2) = (   0.0000000   0.0000000  -0.2035714  )
         3           In  tau(   3) = (   0.1506920   0.6506920   0.0000000  )
         4           In  tau(   4) = (  -0.1506920   0.3493080   0.0000000  )
         5           In  tau(   5) = (   0.3493085   0.1506915   0.0000004  )
         6           In  tau(   6) = (   0.6506915  -0.1506915  -0.0000004  )

     number of k points=   102

     Number of k-points >= 100: set verbosity='high' to print them.

     Dense  grid:   129931 G-vectors     FFT dimensions: (  72,  72,  72)

     Estimated max dynamical RAM per process >      75.53 MB

     Estimated total dynamical RAM >       1.48 GB

     Initial potential from superposition of free atoms

     starting charge      73.9843, renormalised to      74.0000
     Starting wfcs are   54 randomized atomic wfcs

     total cpu time spent up to now is       42.4 secs

     Self-consistent Calculation

     iteration #  1     ecut=   100.00 Ry     beta= 0.70
     Davidson diagonalization with overlap
     ethr =  1.00E-02,  avg # of iterations =  2.0

     Threshold (ethr) on eigenvalues was too large:
     Diagonalizing with lowered threshold

     Davidson diagonalization with overlap
     ethr =  5.76E-05,  avg # of iterations =  6.3

     total cpu time spent up to now is      245.7 secs

     total energy              =    -729.53138318 Ry
     estimated scf accuracy    <       0.04951685 Ry

     iteration #  2     ecut=   100.00 Ry     beta= 0.70
     Davidson diagonalization with overlap
     ethr =  6.69E-05,  avg # of iterations =  3.3

     total cpu time spent up to now is      347.9 secs

     total energy              =    -729.54266179 Ry
     estimated scf accuracy    <       0.01104715 Ry

     iteration #  3     ecut=   100.00 Ry     beta= 0.70
     Davidson diagonalization with overlap
     ethr =  1.49E-05,  avg # of iterations =  4.2

     total cpu time spent up to now is      440.5 secs

     total energy              =    -729.54487200 Ry
     estimated scf accuracy    <       0.00183728 Ry

     iteration #  4     ecut=   100.00 Ry     beta= 0.70
     Davidson diagonalization with overlap
     ethr =  2.48E-06,  avg # of iterations =  5.1

     total cpu time spent up to now is      534.7 secs

     total energy              =    -729.54547816 Ry
     estimated scf accuracy    <       0.00024525 Ry

     iteration #  5     ecut=   100.00 Ry     beta= 0.70
     Davidson diagonalization with overlap
     ethr =  3.31E-07,  avg # of iterations =  4.6

     total cpu time spent up to now is      625.9 secs

     total energy              =    -729.54553574 Ry
     estimated scf accuracy    <       0.00000475 Ry

     iteration #  6     ecut=   100.00 Ry     beta= 0.70
     Davidson diagonalization with overlap
     c_bands:  1 eigenvalues not converged
     ethr =  6.41E-09,  avg # of iterations =  9.7

     total cpu time spent up to now is      776.3 secs

     total energy              =    -729.54554072 Ry
     estimated scf accuracy    <       0.00000612 Ry

     iteration #  7     ecut=   100.00 Ry     beta= 0.70
     Davidson diagonalization with overlap
     ethr =  6.41E-09,  avg # of iterations =  2.9

     total cpu time spent up to now is      862.6 secs

     End of self-consistent calculation

     Number of k-points >= 100: set verbosity='high' to print the bands.

     highest occupied level (ev):    12.4604

!    total energy              =    -729.54554118 Ry
     estimated scf accuracy    <       0.00000039 Ry

     The total energy is the sum of the following terms:
     one-electron contribution =    -168.40981395 Ry
     hartree contribution      =     152.23348760 Ry
     xc contribution           =    -229.47717766 Ry
     ewald contribution        =    -483.89203716 Ry

     convergence has been achieved in   7 iterations

     Forces acting on atoms (cartesian axes, Ry/au):

     atom    1 type  1   force =    -0.00000000    0.00000000    0.00000000
     atom    2 type  1   force =    -0.00000000    0.00000000    0.00000000
     atom    3 type  2   force =     0.00337356    0.00337356   -0.00000000
     atom    4 type  2   force =    -0.00337356   -0.00337356    0.00000000
     atom    5 type  2   force =    -0.00337356    0.00337356   -0.00000000
     atom    6 type  2   force =     0.00337356   -0.00337356    0.00000000
     The non-local contrib.  to forces
     atom    1 type  1   force =     0.00000000    0.00000000   -0.00000000
     atom    2 type  1   force =     0.00000000    0.00000000   -0.00000000
     atom    3 type  2   force =     0.05614043    0.05614043   -0.00000000
     atom    4 type  2   force =    -0.05614043   -0.05614043   -0.00000000
     atom    5 type  2   force =    -0.05614043    0.05614043    0.00000000
     atom    6 type  2   force =     0.05614043   -0.05614043    0.00000000
     The ionic contribution  to forces
     atom    1 type  1   force =    -0.00002052   -0.00002052   -0.00000000
     atom    2 type  1   force =     0.00002052    0.00002052    0.00000000
     atom    3 type  2   force =    -0.59969361   -0.59969361   -0.00000000
     atom    4 type  2   force =     0.59969361    0.59969361    0.00000000
     atom    5 type  2   force =     0.59961505   -0.59961505   -0.00004045
     atom    6 type  2   force =    -0.59961505    0.59961505    0.00004045
     The local contribution  to forces
     atom    1 type  1   force =     0.00000000   -0.00000000    0.00000000
     atom    2 type  1   force =    -0.00000000    0.00000000    0.00000000
     atom    3 type  2   force =     0.54898721    0.54898721    0.00000000
     atom    4 type  2   force =    -0.54898721   -0.54898721   -0.00000000
     atom    5 type  2   force =    -0.54946336    0.54946336   -0.00038961
     atom    6 type  2   force =     0.54946336   -0.54946336    0.00038961
     The core correction contribution to forces
     atom    1 type  1   force =    -0.00000000   -0.00000000    0.00000000
     atom    2 type  1   force =     0.00000000    0.00000000   -0.00000000
     atom    3 type  2   force =    -0.00258275   -0.00258275    0.00000000
     atom    4 type  2   force =     0.00258275    0.00258275    0.00000000
     atom    5 type  2   force =     0.00254015   -0.00254015   -0.00003471
     atom    6 type  2   force =    -0.00254015    0.00254015    0.00003471
     The Hubbard contrib.    to forces
     atom    1 type  1   force =     0.00000000    0.00000000    0.00000000
     atom    2 type  1   force =     0.00000000    0.00000000    0.00000000
     atom    3 type  2   force =     0.00000000    0.00000000    0.00000000
     atom    4 type  2   force =     0.00000000    0.00000000    0.00000000
     atom    5 type  2   force =     0.00000000    0.00000000    0.00000000
     atom    6 type  2   force =     0.00000000    0.00000000    0.00000000
     The SCF correction term to forces
     atom    1 type  1   force =     0.00000001    0.00000001   -0.00000000
     atom    2 type  1   force =    -0.00000001   -0.00000001    0.00000000
     atom    3 type  2   force =     0.00022367    0.00022367    0.00000000
     atom    4 type  2   force =    -0.00022367   -0.00022367   -0.00000000
     atom    5 type  2   force =    -0.00022357    0.00022357    0.00000007
     atom    6 type  2   force =     0.00022357   -0.00022357   -0.00000007

     Total force =     0.009542     Total SCF correction =     0.000632

     BFGS Geometry Optimization
     Energy error            =      0.0E+00 Ry
     Gradient error          =      3.4E-03 Ry/Bohr

     bfgs converged in   1 scf cycles and   0 bfgs steps
     (criteria: energy <  1.0E-04 Ry, force <  1.0E-02 Ry/Bohr)

     End of BFGS Geometry Optimization

     Final energy             =    -729.5455411791 Ry
Begin final coordinates

ATOMIC_POSITIONS (crystal)
Ag            0.0000000000        0.2500000000        0.2500000000
Ag            0.0000000000       -0.2500000000       -0.2500000000
In           -0.5000000000        0.6506920000       -0.1506920000
In           -0.5000000000        0.3493080000        0.1506920000
In            0.1986170000        0.1506920000       -0.3493080000
In            0.8013830000       -0.1506920000       -0.6506920000
End final coordinates



     Writing all to output data dir ./tmp/AgIn2_Relax.save/

     init_run     :     12.29s CPU     40.49s WALL (       1 calls)
     electrons    :    255.27s CPU    820.23s WALL (       1 calls)
     forces       :      4.46s CPU     15.36s WALL (       1 calls)

     Called by init_run:
     wfcinit      :     10.85s CPU     36.14s WALL (       1 calls)
     potinit      :      0.21s CPU      0.66s WALL (       1 calls)
     hinit0       :      0.78s CPU      2.40s WALL (       1 calls)

     Called by electrons:
     c_bands      :    226.27s CPU    727.92s WALL (       8 calls)
     sum_band     :     28.18s CPU     89.93s WALL (       8 calls)
     v_of_rho     :      0.20s CPU      0.61s WALL (       8 calls)
     newd         :      0.64s CPU      1.82s WALL (       8 calls)
     mix_rho      :      0.03s CPU      0.10s WALL (       8 calls)

     Called by c_bands:
     init_us_2    :      1.52s CPU      2.14s WALL (    1836 calls)
     init_us_2:cp :      1.51s CPU      2.13s WALL (    1836 calls)
     cegterg      :    220.77s CPU    710.32s WALL (     816 calls)

     Called by *egterg:
     cdiaghg      :     13.71s CPU     48.33s WALL (    4601 calls)
     h_psi        :    145.14s CPU    479.39s WALL (    4805 calls)
     s_psi        :     11.36s CPU     20.58s WALL (    4805 calls)
     g_psi        :      0.24s CPU      0.41s WALL (    3887 calls)

     Called by h_psi:
     h_psi:calbec :     22.98s CPU     85.66s WALL (    4805 calls)
     vloc_psi     :    109.91s CPU    377.59s WALL (    4805 calls)
     add_vuspsi   :     11.69s CPU     15.34s WALL (    4805 calls)

     General routines
     calbec       :     32.44s CPU    114.92s WALL (    6029 calls)
     fft          :      0.47s CPU      1.77s WALL (     100 calls)
     ffts         :      0.01s CPU      0.10s WALL (       8 calls)
     fftw         :    115.87s CPU    428.69s WALL (  218668 calls)

     Parallel routines

     PWSCF        :   4m34.87s CPU  14m57.60s WALL


   This run was terminated on:  18:29:58   8May2023            

=------------------------------------------------------------------------------=
   JOB DONE.
=------------------------------------------------------------------------------=
Note: The following floating-point exceptions are signalling: IEEE_INVALID_FLAG
