
     Program PWSCF v.7.2 starts on  8May2023 at 15:59:31 

     This program is part of the open-source Quantum ESPRESSO suite
     for quantum simulation of materials; please cite
         "P. Giannozzi et al., J. Phys.:Condens. Matter 21 395502 (2009);
         "P. Giannozzi et al., J. Phys.:Condens. Matter 29 465901 (2017);
         "P. Giannozzi et al., J. Chem. Phys. 152 154105 (2020);
          URL http://www.quantum-espresso.org", 
     in publications or presentations arising from this work. More details at
     http://www.quantum-espresso.org/quote

     Parallel version (MPI), running on    20 processors

     MPI processes distributed on     1 nodes
     1926 MiB available memory on the printing compute node when the environment starts

     Reading input from ./DFTData/AgIn2/relax/Relax_V955.36_0.in
Warning: card &CELL ignored
Warning: card / ignored

     Current dimensions of program PWSCF are:
     Max number of different atomic species (ntypx) = 10
     Max number of k-points (npk) =  40000
     Max angular momentum in pseudopotentials (lmaxx) =  4
     file In.pbe-dn-rrkjus_psl.1.0.0.UPF: wavefunction(s)  5S 4D renormalized

     R & G space division:  proc/nbgrp/npool/nimage =      20
     Subspace diagonalization in iterative solution of the eigenvalue problem:
     a serial algorithm will be used


     Parallelization info
     --------------------
     sticks:   dense  smooth     PW     G-vecs:    dense   smooth      PW
     Min         181     181     53                 6459     6459    1032
     Max         182     182     54                 6461     6461    1034
     Sum        3629    3629   1063               129203   129203   20655

     Using Slab Decomposition



     bravais-lattice index     =            7
     lattice parameter (alat)  =      13.2884  a.u.
     unit-cell volume          =     955.3631 (a.u.)^3
     number of atoms/cell      =            6
     number of atomic types    =            2
     number of electrons       =        74.00
     number of Kohn-Sham states=           37
     kinetic-energy cutoff     =     100.0000  Ry
     charge density cutoff     =     400.0000  Ry
     scf convergence threshold =      1.0E-06
     mixing beta               =       0.7000
     number of iterations used =            8  plain     mixing
     energy convergence thresh.=      1.0E-04
     force convergence thresh. =      1.0E-02
     Exchange-correlation= PBE
                           (   1   4   3   4   0   0   0)
     nstep                     =           50


     celldm(1)=  13.288436  celldm(2)=   0.000000  celldm(3)=   0.814286
     celldm(4)=   0.000000  celldm(5)=   0.000000  celldm(6)=   0.000000

     crystal axes: (cart. coord. in units of alat)
               a(1) = (   0.500000  -0.500000   0.407143 )  
               a(2) = (   0.500000   0.500000   0.407143 )  
               a(3) = (  -0.500000  -0.500000   0.407143 )  

     reciprocal axes: (cart. coord. in units 2 pi/alat)
               b(1) = (  1.000000 -1.000000  0.000000 )  
               b(2) = (  0.000000  1.000000  1.228070 )  
               b(3) = ( -1.000000  0.000000  1.228070 )  


     PseudoPot. # 1 for Ag read from file:
     ./pseudos/Ag.pbe-n-rrkjus_psl.1.0.0.UPF
     MD5 check sum: d841cbfac2b0861aec33b46768a516bf
     Pseudo is Ultrasoft + core correction, Zval = 11.0
     Generated using &quot;atomic&quot; code by A. Dal Corso  v.6.2.2
     Using radial grid of 1237 points,  6 beta functions with: 
                l(1) =   0
                l(2) =   0
                l(3) =   1
                l(4) =   1
                l(5) =   2
                l(6) =   2
     Q(r) pseudized with 0 coefficients 


     PseudoPot. # 2 for In read from file:
     ./pseudos/In.pbe-dn-rrkjus_psl.1.0.0.UPF
     MD5 check sum: 7267d4f9f57825930b619e54710f1f3b
     Pseudo is Ultrasoft + core correction, Zval = 13.0
     Generated using &quot;atomic&quot; code by A. Dal Corso  v.6.3
     Using radial grid of 1241 points,  6 beta functions with: 
                l(1) =   0
                l(2) =   0
                l(3) =   1
                l(4) =   1
                l(5) =   2
                l(6) =   2
     Q(r) pseudized with 0 coefficients 


     atomic species   valence    mass     pseudopotential
        Ag            11.00   107.86820     Ag( 1.00)
        In            13.00   114.81800     In( 1.00)

     16 Sym. Ops., with inversion, found ( 8 have fractional translation)



   Cartesian axes

     site n.     atom                  positions (alat units)
         1           Ag  tau(   1) = (   0.0000000   0.0000000   0.2035714  )
         2           Ag  tau(   2) = (   0.0000000   0.0000000  -0.2035714  )
         3           In  tau(   3) = (   0.1506920   0.6506920   0.0000000  )
         4           In  tau(   4) = (  -0.1506920   0.3493080   0.0000000  )
         5           In  tau(   5) = (   0.3493085   0.1506915   0.0000004  )
         6           In  tau(   6) = (   0.6506915  -0.1506915  -0.0000004  )

     number of k points=   102

     Number of k-points >= 100: set verbosity='high' to print them.

     Dense  grid:   129203 G-vectors     FFT dimensions: (  72,  72,  72)

     Estimated max dynamical RAM per process >      75.10 MB

     Estimated total dynamical RAM >       1.47 GB

     Initial potential from superposition of free atoms

     starting charge      73.9843, renormalised to      74.0000
     Starting wfcs are   54 randomized atomic wfcs

     total cpu time spent up to now is       43.2 secs

     Self-consistent Calculation

     iteration #  1     ecut=   100.00 Ry     beta= 0.70
     Davidson diagonalization with overlap
     ethr =  1.00E-02,  avg # of iterations =  2.0

     Threshold (ethr) on eigenvalues was too large:
     Diagonalizing with lowered threshold

     Davidson diagonalization with overlap
     ethr =  5.72E-05,  avg # of iterations =  6.3

     total cpu time spent up to now is      248.2 secs

     total energy              =    -729.53146953 Ry
     estimated scf accuracy    <       0.04969360 Ry

     iteration #  2     ecut=   100.00 Ry     beta= 0.70
     Davidson diagonalization with overlap
     ethr =  6.72E-05,  avg # of iterations =  3.2

     total cpu time spent up to now is      351.7 secs

     total energy              =    -729.54284900 Ry
     estimated scf accuracy    <       0.01032490 Ry

     iteration #  3     ecut=   100.00 Ry     beta= 0.70
     Davidson diagonalization with overlap
     ethr =  1.40E-05,  avg # of iterations =  4.1

     total cpu time spent up to now is      454.7 secs

     total energy              =    -729.54490029 Ry
     estimated scf accuracy    <       0.00158148 Ry

     iteration #  4     ecut=   100.00 Ry     beta= 0.70
     Davidson diagonalization with overlap
     ethr =  2.14E-06,  avg # of iterations =  5.3

     total cpu time spent up to now is      547.6 secs

     total energy              =    -729.54542234 Ry
     estimated scf accuracy    <       0.00021851 Ry

     iteration #  5     ecut=   100.00 Ry     beta= 0.70
     Davidson diagonalization with overlap
     ethr =  2.95E-07,  avg # of iterations =  4.9

     total cpu time spent up to now is      641.3 secs

     total energy              =    -729.54547689 Ry
     estimated scf accuracy    <       0.00000501 Ry

     iteration #  6     ecut=   100.00 Ry     beta= 0.70
     Davidson diagonalization with overlap
     ethr =  6.76E-09,  avg # of iterations =  8.3

     total cpu time spent up to now is      792.6 secs

     total energy              =    -729.54548052 Ry
     estimated scf accuracy    <       0.00000394 Ry

     iteration #  7     ecut=   100.00 Ry     beta= 0.70
     Davidson diagonalization with overlap
     ethr =  5.32E-09,  avg # of iterations =  3.6

     total cpu time spent up to now is      880.2 secs

     End of self-consistent calculation

     Number of k-points >= 100: set verbosity='high' to print the bands.

     highest occupied level (ev):    12.5535

!    total energy              =    -729.54548124 Ry
     estimated scf accuracy    <       0.00000006 Ry

     The total energy is the sum of the following terms:
     one-electron contribution =    -167.04207643 Ry
     hartree contribution      =     151.74779910 Ry
     xc contribution           =    -229.49020528 Ry
     ewald contribution        =    -484.76099863 Ry

     convergence has been achieved in   7 iterations

     Forces acting on atoms (cartesian axes, Ry/au):

     atom    1 type  1   force =    -0.00000000    0.00000000    0.00000000
     atom    2 type  1   force =    -0.00000000    0.00000000    0.00000000
     atom    3 type  2   force =     0.00332994    0.00332994    0.00000000
     atom    4 type  2   force =    -0.00332994   -0.00332994    0.00000000
     atom    5 type  2   force =    -0.00332994    0.00332994    0.00000000
     atom    6 type  2   force =     0.00332994   -0.00332994    0.00000000
     The non-local contrib.  to forces
     atom    1 type  1   force =    -0.00000000    0.00000000    0.00000000
     atom    2 type  1   force =     0.00000000    0.00000000   -0.00000000
     atom    3 type  2   force =     0.05679092    0.05679092    0.00000000
     atom    4 type  2   force =    -0.05679092   -0.05679092    0.00000000
     atom    5 type  2   force =    -0.05679092    0.05679092    0.00000000
     atom    6 type  2   force =     0.05679092   -0.05679092    0.00000000
     The ionic contribution  to forces
     atom    1 type  1   force =    -0.00002059   -0.00002059   -0.00000000
     atom    2 type  1   force =     0.00002059    0.00002059    0.00000000
     atom    3 type  2   force =    -0.60184937   -0.60184937   -0.00000000
     atom    4 type  2   force =     0.60184937    0.60184937   -0.00000000
     atom    5 type  2   force =     0.60177053   -0.60177053   -0.00004059
     atom    6 type  2   force =    -0.60177053    0.60177053    0.00004059
     The local contribution  to forces
     atom    1 type  1   force =     0.00000000    0.00000000   -0.00000000
     atom    2 type  1   force =    -0.00000000   -0.00000000    0.00000000
     atom    3 type  2   force =     0.55034775    0.55034775   -0.00000000
     atom    4 type  2   force =    -0.55034775   -0.55034775    0.00000000
     atom    5 type  2   force =    -0.55082277    0.55082277   -0.00038869
     atom    6 type  2   force =     0.55082277   -0.55082277    0.00038869
     The core correction contribution to forces
     atom    1 type  1   force =    -0.00000000   -0.00000000    0.00000000
     atom    2 type  1   force =     0.00000000    0.00000000   -0.00000000
     atom    3 type  2   force =    -0.00260899   -0.00260899    0.00000000
     atom    4 type  2   force =     0.00260899    0.00260899    0.00000000
     atom    5 type  2   force =     0.00256646   -0.00256646   -0.00003465
     atom    6 type  2   force =    -0.00256646    0.00256646    0.00003465
     The Hubbard contrib.    to forces
     atom    1 type  1   force =     0.00000000    0.00000000    0.00000000
     atom    2 type  1   force =     0.00000000    0.00000000    0.00000000
     atom    3 type  2   force =     0.00000000    0.00000000    0.00000000
     atom    4 type  2   force =     0.00000000    0.00000000    0.00000000
     atom    5 type  2   force =     0.00000000    0.00000000    0.00000000
     atom    6 type  2   force =     0.00000000    0.00000000    0.00000000
     The SCF correction term to forces
     atom    1 type  1   force =     0.00000001    0.00000001    0.00000000
     atom    2 type  1   force =    -0.00000001   -0.00000001   -0.00000000
     atom    3 type  2   force =     0.00035154    0.00035154   -0.00000000
     atom    4 type  2   force =    -0.00035154   -0.00035154    0.00000000
     atom    5 type  2   force =    -0.00035134    0.00035134    0.00000015
     atom    6 type  2   force =     0.00035134   -0.00035134   -0.00000015

     Total force =     0.009419     Total SCF correction =     0.000994
     SCF correction compared to forces is large: reduce conv_thr to get better values

     BFGS Geometry Optimization
     Energy error            =      0.0E+00 Ry
     Gradient error          =      3.3E-03 Ry/Bohr

     bfgs converged in   1 scf cycles and   0 bfgs steps
     (criteria: energy <  1.0E-04 Ry, force <  1.0E-02 Ry/Bohr)

     End of BFGS Geometry Optimization

     Final energy             =    -729.5454812359 Ry
Begin final coordinates

ATOMIC_POSITIONS (crystal)
Ag            0.0000000000        0.2500000000        0.2500000000
Ag            0.0000000000       -0.2500000000       -0.2500000000
In           -0.5000000000        0.6506920000       -0.1506920000
In           -0.5000000000        0.3493080000        0.1506920000
In            0.1986170000        0.1506920000       -0.3493080000
In            0.8013830000       -0.1506920000       -0.6506920000
End final coordinates



     Writing all to output data dir ./tmp/AgIn2_Relax.save/

     init_run     :     12.72s CPU     41.08s WALL (       1 calls)
     electrons    :    256.55s CPU    837.17s WALL (       1 calls)
     forces       :      4.63s CPU     15.41s WALL (       1 calls)

     Called by init_run:
     wfcinit      :     11.17s CPU     36.39s WALL (       1 calls)
     potinit      :      0.23s CPU      0.70s WALL (       1 calls)
     hinit0       :      0.81s CPU      2.40s WALL (       1 calls)

     Called by electrons:
     c_bands      :    227.45s CPU    743.92s WALL (       8 calls)
     sum_band     :     28.29s CPU     90.80s WALL (       8 calls)
     v_of_rho     :      0.20s CPU      0.70s WALL (       8 calls)
     newd         :      0.65s CPU      1.86s WALL (       8 calls)
     mix_rho      :      0.03s CPU      0.09s WALL (       8 calls)

     Called by c_bands:
     init_us_2    :      1.47s CPU      2.00s WALL (    1836 calls)
     init_us_2:cp :      1.46s CPU      1.99s WALL (    1836 calls)
     cegterg      :    221.86s CPU    725.98s WALL (     816 calls)

     Called by *egterg:
     cdiaghg      :     13.64s CPU     48.13s WALL (    4562 calls)
     h_psi        :    147.10s CPU    491.66s WALL (    4766 calls)
     s_psi        :     11.49s CPU     20.39s WALL (    4766 calls)
     g_psi        :      0.23s CPU      0.47s WALL (    3848 calls)

     Called by h_psi:
     h_psi:calbec :     23.23s CPU     87.29s WALL (    4766 calls)
     vloc_psi     :    111.54s CPU    388.85s WALL (    4766 calls)
     add_vuspsi   :     11.80s CPU     14.75s WALL (    4766 calls)

     General routines
     calbec       :     32.82s CPU    116.76s WALL (    5990 calls)
     fft          :      0.52s CPU      2.01s WALL (     100 calls)
     ffts         :      0.01s CPU      0.12s WALL (       8 calls)
     fftw         :    117.62s CPU    440.61s WALL (  218488 calls)

     Parallel routines

     PWSCF        :   4m36.79s CPU  15m14.77s WALL


   This run was terminated on:  16:14:46   8May2023            

=------------------------------------------------------------------------------=
   JOB DONE.
=------------------------------------------------------------------------------=
Note: The following floating-point exceptions are signalling: IEEE_INVALID_FLAG
