
     Program PWSCF v.7.2 starts on  8May2023 at  6: 9:18 

     This program is part of the open-source Quantum ESPRESSO suite
     for quantum simulation of materials; please cite
         "P. Giannozzi et al., J. Phys.:Condens. Matter 21 395502 (2009);
         "P. Giannozzi et al., J. Phys.:Condens. Matter 29 465901 (2017);
         "P. Giannozzi et al., J. Chem. Phys. 152 154105 (2020);
          URL http://www.quantum-espresso.org", 
     in publications or presentations arising from this work. More details at
     http://www.quantum-espresso.org/quote

     Parallel version (MPI), running on    20 processors

     MPI processes distributed on     1 nodes
     3447 MiB available memory on the printing compute node when the environment starts

     Reading input from ./DFTData/AgIn2/relax/Relax_V700.00_0.in
Warning: card &CELL ignored
Warning: card / ignored

     Current dimensions of program PWSCF are:
     Max number of different atomic species (ntypx) = 10
     Max number of k-points (npk) =  40000
     Max angular momentum in pseudopotentials (lmaxx) =  4
     file In.pbe-dn-rrkjus_psl.1.0.0.UPF: wavefunction(s)  5S 4D renormalized

     R & G space division:  proc/nbgrp/npool/nimage =      20
     Subspace diagonalization in iterative solution of the eigenvalue problem:
     a serial algorithm will be used


     Parallelization info
     --------------------
     sticks:   dense  smooth     PW     G-vecs:    dense   smooth      PW
     Min         149     149     44                 4728     4728     769
     Max         150     150     45                 4729     4729     771
     Sum        2983    2983    887                94575    94575   15401

     Using Slab Decomposition



     bravais-lattice index     =            7
     lattice parameter (alat)  =      12.1233  a.u.
     unit-cell volume          =     700.0000 (a.u.)^3
     number of atoms/cell      =            6
     number of atomic types    =            2
     number of electrons       =        74.00
     number of Kohn-Sham states=           37
     kinetic-energy cutoff     =     100.0000  Ry
     charge density cutoff     =     400.0000  Ry
     scf convergence threshold =      1.0E-06
     mixing beta               =       0.7000
     number of iterations used =            8  plain     mixing
     energy convergence thresh.=      1.0E-04
     force convergence thresh. =      1.0E-02
     Exchange-correlation= PBE
                           (   1   4   3   4   0   0   0)
     nstep                     =           50


     celldm(1)=  12.123308  celldm(2)=   0.000000  celldm(3)=   0.785714
     celldm(4)=   0.000000  celldm(5)=   0.000000  celldm(6)=   0.000000

     crystal axes: (cart. coord. in units of alat)
               a(1) = (   0.500000  -0.500000   0.392857 )  
               a(2) = (   0.500000   0.500000   0.392857 )  
               a(3) = (  -0.500000  -0.500000   0.392857 )  

     reciprocal axes: (cart. coord. in units 2 pi/alat)
               b(1) = (  1.000000 -1.000000  0.000000 )  
               b(2) = (  0.000000  1.000000  1.272727 )  
               b(3) = ( -1.000000  0.000000  1.272727 )  


     PseudoPot. # 1 for Ag read from file:
     ./pseudos/Ag.pbe-n-rrkjus_psl.1.0.0.UPF
     MD5 check sum: d841cbfac2b0861aec33b46768a516bf
     Pseudo is Ultrasoft + core correction, Zval = 11.0
     Generated using &quot;atomic&quot; code by A. Dal Corso  v.6.2.2
     Using radial grid of 1237 points,  6 beta functions with: 
                l(1) =   0
                l(2) =   0
                l(3) =   1
                l(4) =   1
                l(5) =   2
                l(6) =   2
     Q(r) pseudized with 0 coefficients 


     PseudoPot. # 2 for In read from file:
     ./pseudos/In.pbe-dn-rrkjus_psl.1.0.0.UPF
     MD5 check sum: 7267d4f9f57825930b619e54710f1f3b
     Pseudo is Ultrasoft + core correction, Zval = 13.0
     Generated using &quot;atomic&quot; code by A. Dal Corso  v.6.3
     Using radial grid of 1241 points,  6 beta functions with: 
                l(1) =   0
                l(2) =   0
                l(3) =   1
                l(4) =   1
                l(5) =   2
                l(6) =   2
     Q(r) pseudized with 0 coefficients 


     atomic species   valence    mass     pseudopotential
        Ag            11.00   107.86820     Ag( 1.00)
        In            13.00   114.81800     In( 1.00)

     16 Sym. Ops., with inversion, found ( 8 have fractional translation)



   Cartesian axes

     site n.     atom                  positions (alat units)
         1           Ag  tau(   1) = (   0.0000000   0.0000000   0.1964286  )
         2           Ag  tau(   2) = (   0.0000000   0.0000000  -0.1964286  )
         3           In  tau(   3) = (   0.1304000   0.6304000  -0.0000000  )
         4           In  tau(   4) = (  -0.1304000   0.3696000  -0.0000000  )
         5           In  tau(   5) = (   0.3696005   0.1303995   0.0000004  )
         6           In  tau(   6) = (   0.6303995  -0.1303995  -0.0000004  )

     number of k points=   102

     Number of k-points >= 100: set verbosity='high' to print them.

     Dense  grid:    94575 G-vectors     FFT dimensions: (  64,  64,  64)

     Estimated max dynamical RAM per process >      55.98 MB

     Estimated total dynamical RAM >       1.09 GB

     Initial potential from superposition of free atoms

     starting charge      73.9843, renormalised to      74.0000
     Starting wfcs are   54 randomized atomic wfcs

     total cpu time spent up to now is       28.4 secs

     Self-consistent Calculation

     iteration #  1     ecut=   100.00 Ry     beta= 0.70
     Davidson diagonalization with overlap
     ethr =  1.00E-02,  avg # of iterations =  2.0

     Threshold (ethr) on eigenvalues was too large:
     Diagonalizing with lowered threshold

     Davidson diagonalization with overlap
     ethr =  7.68E-05,  avg # of iterations =  6.1

     total cpu time spent up to now is      176.7 secs

     total energy              =    -729.16095673 Ry
     estimated scf accuracy    <       0.09569515 Ry

     iteration #  2     ecut=   100.00 Ry     beta= 0.70
     Davidson diagonalization with overlap
     ethr =  1.29E-04,  avg # of iterations =  2.3

     total cpu time spent up to now is      242.2 secs

     total energy              =    -729.18042849 Ry
     estimated scf accuracy    <       0.01621384 Ry

     iteration #  3     ecut=   100.00 Ry     beta= 0.70
     Davidson diagonalization with overlap
     ethr =  2.19E-05,  avg # of iterations =  4.9

     total cpu time spent up to now is      302.4 secs

     total energy              =    -729.18385248 Ry
     estimated scf accuracy    <       0.00393510 Ry

     iteration #  4     ecut=   100.00 Ry     beta= 0.70
     Davidson diagonalization with overlap
     ethr =  5.32E-06,  avg # of iterations =  4.7

     total cpu time spent up to now is      362.6 secs

     total energy              =    -729.18494918 Ry
     estimated scf accuracy    <       0.00027316 Ry

     iteration #  5     ecut=   100.00 Ry     beta= 0.70
     Davidson diagonalization with overlap
     ethr =  3.69E-07,  avg # of iterations =  4.4

     total cpu time spent up to now is      432.7 secs

     total energy              =    -729.18505300 Ry
     estimated scf accuracy    <       0.00002799 Ry

     iteration #  6     ecut=   100.00 Ry     beta= 0.70
     Davidson diagonalization with overlap
     ethr =  3.78E-08,  avg # of iterations =  6.3

     total cpu time spent up to now is      501.5 secs

     total energy              =    -729.18506420 Ry
     estimated scf accuracy    <       0.00000389 Ry

     iteration #  7     ecut=   100.00 Ry     beta= 0.70
     Davidson diagonalization with overlap
     ethr =  5.26E-09,  avg # of iterations =  6.3

     total cpu time spent up to now is      580.4 secs

     total energy              =    -729.18506587 Ry
     estimated scf accuracy    <       0.00000328 Ry

     iteration #  8     ecut=   100.00 Ry     beta= 0.70
     Davidson diagonalization with overlap
     ethr =  4.43E-09,  avg # of iterations =  2.4

     total cpu time spent up to now is      634.5 secs

     End of self-consistent calculation

     Number of k-points >= 100: set verbosity='high' to print the bands.

     highest occupied level (ev):    18.4565

!    total energy              =    -729.18506579 Ry
     estimated scf accuracy    <       0.00000044 Ry

     The total energy is the sum of the following terms:
     one-electron contribution =     -89.78542152 Ry
     hartree contribution      =     126.47624958 Ry
     xc contribution           =    -230.63306743 Ry
     ewald contribution        =    -535.24282642 Ry

     convergence has been achieved in   8 iterations

     Forces acting on atoms (cartesian axes, Ry/au):

     atom    1 type  1   force =     0.00000000    0.00000000   -0.00000000
     atom    2 type  1   force =     0.00000000    0.00000000   -0.00000000
     atom    3 type  2   force =     0.14413746    0.14413746    0.00000000
     atom    4 type  2   force =    -0.14413746   -0.14413746    0.00000000
     atom    5 type  2   force =    -0.14413746    0.14413746    0.00000000
     atom    6 type  2   force =     0.14413746   -0.14413746    0.00000000
     The non-local contrib.  to forces
     atom    1 type  1   force =    -0.00000000    0.00000000    0.00000000
     atom    2 type  1   force =     0.00000000    0.00000000   -0.00000000
     atom    3 type  2   force =     0.12108191    0.12108191    0.00000000
     atom    4 type  2   force =    -0.12108191   -0.12108191    0.00000000
     atom    5 type  2   force =    -0.12108191    0.12108191    0.00000000
     atom    6 type  2   force =     0.12108191   -0.12108191   -0.00000000
     The ionic contribution  to forces
     atom    1 type  1   force =    -0.00002010   -0.00002010    0.00000000
     atom    2 type  1   force =     0.00002010    0.00002010   -0.00000000
     atom    3 type  2   force =     3.57151928    3.57151928   -0.00000000
     atom    4 type  2   force =    -3.57151928   -3.57151928   -0.00000000
     atom    5 type  2   force =    -3.57164999    3.57164999   -0.00003720
     atom    6 type  2   force =     3.57164999   -3.57164999    0.00003720
     The local contribution  to forces
     atom    1 type  1   force =     0.00000000   -0.00000000    0.00000000
     atom    2 type  1   force =    -0.00000000    0.00000000   -0.00000000
     atom    3 type  2   force =    -3.52849738   -3.52849738    0.00000000
     atom    4 type  2   force =     3.52849738    3.52849738    0.00000000
     atom    5 type  2   force =     3.52809922   -3.52809922   -0.00032922
     atom    6 type  2   force =    -3.52809922    3.52809922    0.00032922
     The core correction contribution to forces
     atom    1 type  1   force =    -0.00000000   -0.00000000   -0.00000000
     atom    2 type  1   force =     0.00000000    0.00000000    0.00000000
     atom    3 type  2   force =    -0.01886565   -0.01886565   -0.00000000
     atom    4 type  2   force =     0.01886565    0.01886565    0.00000000
     atom    5 type  2   force =     0.01882685   -0.01882685   -0.00003064
     atom    6 type  2   force =    -0.01882685    0.01882685    0.00003064
     The Hubbard contrib.    to forces
     atom    1 type  1   force =     0.00000000    0.00000000    0.00000000
     atom    2 type  1   force =     0.00000000    0.00000000    0.00000000
     atom    3 type  2   force =     0.00000000    0.00000000    0.00000000
     atom    4 type  2   force =     0.00000000    0.00000000    0.00000000
     atom    5 type  2   force =     0.00000000    0.00000000    0.00000000
     atom    6 type  2   force =     0.00000000    0.00000000    0.00000000
     The SCF correction term to forces
     atom    1 type  1   force =     0.00000000    0.00000000   -0.00000000
     atom    2 type  1   force =    -0.00000000   -0.00000000    0.00000000
     atom    3 type  2   force =    -0.00138454   -0.00138454    0.00000000
     atom    4 type  2   force =     0.00138454    0.00138454   -0.00000000
     atom    5 type  2   force =     0.00138454   -0.00138454    0.00000000
     atom    6 type  2   force =    -0.00138454    0.00138454   -0.00000000

     Total force =     0.407682     Total SCF correction =     0.003916

     BFGS Geometry Optimization
     Energy error            =      0.0E+00 Ry
     Gradient error          =      1.4E-01 Ry/Bohr

     number of scf cycles    =   1
     number of bfgs steps    =   0

     energy             new  =    -729.1850657915 Ry

     new trust radius        =       0.2038411450 bohr
     new conv_thr            =       0.0000010000 Ry


ATOMIC_POSITIONS (crystal)
Ag            0.0000000000        0.2500000000        0.2500000000
Ag            0.0000000000       -0.2500000000       -0.2500000000
In           -0.5000000000        0.6422892846       -0.1422892846
In           -0.5000000000        0.3577107154        0.1422892846
In            0.2154224308        0.1422892846       -0.3577107154
In            0.7845775692       -0.1422892846       -0.6422892846



     Writing config-only to output data dir ./tmp/AgIn2_Relax.save/
     NEW-OLD atomic charge density approx. for the potential

     total cpu time spent up to now is      651.4 secs

     Self-consistent Calculation

     iteration #  1     ecut=   100.00 Ry     beta= 0.70
     Davidson diagonalization with overlap
     c_bands:  1 eigenvalues not converged
     c_bands:  1 eigenvalues not converged
     c_bands:  1 eigenvalues not converged
     c_bands:  1 eigenvalues not converged
     c_bands:  1 eigenvalues not converged
     c_bands:  1 eigenvalues not converged
     c_bands:  1 eigenvalues not converged
     c_bands:  1 eigenvalues not converged
     c_bands:  1 eigenvalues not converged
     c_bands:  1 eigenvalues not converged
     c_bands:  1 eigenvalues not converged
     c_bands:  1 eigenvalues not converged
     c_bands:  1 eigenvalues not converged
     c_bands:  1 eigenvalues not converged
     c_bands:  1 eigenvalues not converged
     c_bands:  1 eigenvalues not converged
     c_bands:  1 eigenvalues not converged
     c_bands:  1 eigenvalues not converged
     c_bands:  1 eigenvalues not converged
     ethr =  1.00E-06,  avg # of iterations = 15.7

     total cpu time spent up to now is      938.4 secs

     total energy              =    -729.28621618 Ry
     estimated scf accuracy    <       0.00108739 Ry

     iteration #  2     ecut=   100.00 Ry     beta= 0.70
     Davidson diagonalization with overlap
     ethr =  1.47E-06,  avg # of iterations =  3.3

     total cpu time spent up to now is     1019.1 secs

     total energy              =    -729.28642358 Ry
     estimated scf accuracy    <       0.00051436 Ry

     iteration #  3     ecut=   100.00 Ry     beta= 0.70
     Davidson diagonalization with overlap
     ethr =  6.95E-07,  avg # of iterations =  3.4

     total cpu time spent up to now is     1085.2 secs

     total energy              =    -729.28656272 Ry
     estimated scf accuracy    <       0.00008022 Ry

     iteration #  4     ecut=   100.00 Ry     beta= 0.70
     Davidson diagonalization with overlap
     ethr =  1.08E-07,  avg # of iterations =  3.7

     total cpu time spent up to now is     1142.1 secs

     total energy              =    -729.28658015 Ry
     estimated scf accuracy    <       0.00000410 Ry

     iteration #  5     ecut=   100.00 Ry     beta= 0.70
     Davidson diagonalization with overlap
     c_bands:  1 eigenvalues not converged
     ethr =  5.54E-09,  avg # of iterations =  6.8

     total cpu time spent up to now is     1223.0 secs

     total energy              =    -729.28703049 Ry
     estimated scf accuracy    <       0.00000859 Ry

     iteration #  6     ecut=   100.00 Ry     beta= 0.70
     Davidson diagonalization with overlap
     ethr =  5.54E-09,  avg # of iterations =  2.4

     total cpu time spent up to now is     1272.4 secs

     total energy              =    -729.28702913 Ry
     estimated scf accuracy    <       0.00000359 Ry

     iteration #  7     ecut=   100.00 Ry     beta= 0.70
     Davidson diagonalization with overlap
     ethr =  4.85E-09,  avg # of iterations =  5.5

     total cpu time spent up to now is     1335.7 secs

     End of self-consistent calculation

     Number of k-points >= 100: set verbosity='high' to print the bands.

     highest occupied level (ev):    18.7940

!    total energy              =    -729.28703002 Ry
     estimated scf accuracy    <       0.00000013 Ry

     The total energy is the sum of the following terms:
     one-electron contribution =     -85.51711641 Ry
     hartree contribution      =     124.49585577 Ry
     xc contribution           =    -230.58036200 Ry
     ewald contribution        =    -537.68540739 Ry

     convergence has been achieved in   7 iterations

     Forces acting on atoms (cartesian axes, Ry/au):

     atom    1 type  1   force =     0.00000000    0.00000000   -0.00000000
     atom    2 type  1   force =    -0.00000000    0.00000000    0.00000000
     atom    3 type  2   force =     0.04280872    0.04280872    0.00000000
     atom    4 type  2   force =    -0.04280872   -0.04280872    0.00000000
     atom    5 type  2   force =    -0.04280872    0.04280872    0.00000000
     atom    6 type  2   force =     0.04280872   -0.04280872    0.00000000
     The non-local contrib.  to forces
     atom    1 type  1   force =     0.00000000    0.00000000    0.00000000
     atom    2 type  1   force =     0.00000000    0.00000000   -0.00000000
     atom    3 type  2   force =     0.09931306    0.09931306    0.00000000
     atom    4 type  2   force =    -0.09931306   -0.09931306    0.00000000
     atom    5 type  2   force =    -0.09931306    0.09931306    0.00000000
     atom    6 type  2   force =     0.09931306   -0.09931306   -0.00000000
     The ionic contribution  to forces
     atom    1 type  1   force =    -0.00002213   -0.00002213    0.00000000
     atom    2 type  1   force =     0.00002213    0.00002213   -0.00000000
     atom    3 type  2   force =     0.77626322    0.77626322    0.00000000
     atom    4 type  2   force =    -0.77626322   -0.77626322    0.00000000
     atom    5 type  2   force =    -0.77637137    0.77637137   -0.00004455
     atom    6 type  2   force =     0.77637137   -0.77637137    0.00004455
     The local contribution  to forces
     atom    1 type  1   force =     0.00000000   -0.00000000    0.00000000
     atom    2 type  1   force =    -0.00000000    0.00000000   -0.00000000
     atom    3 type  2   force =    -0.82463962   -0.82463962    0.00000000
     atom    4 type  2   force =     0.82463962    0.82463962   -0.00000000
     atom    5 type  2   force =     0.82422998   -0.82422998   -0.00032912
     atom    6 type  2   force =    -0.82422998    0.82422998    0.00032912
     The core correction contribution to forces
     atom    1 type  1   force =    -0.00000000   -0.00000000   -0.00000000
     atom    2 type  1   force =     0.00000000    0.00000000    0.00000000
     atom    3 type  2   force =    -0.00880086   -0.00880086    0.00000000
     atom    4 type  2   force =     0.00880086    0.00880086   -0.00000000
     atom    5 type  2   force =     0.00876198   -0.00876198   -0.00003061
     atom    6 type  2   force =    -0.00876198    0.00876198    0.00003061
     The Hubbard contrib.    to forces
     atom    1 type  1   force =     0.00000000    0.00000000    0.00000000
     atom    2 type  1   force =     0.00000000    0.00000000    0.00000000
     atom    3 type  2   force =     0.00000000    0.00000000    0.00000000
     atom    4 type  2   force =     0.00000000    0.00000000    0.00000000
     atom    5 type  2   force =     0.00000000    0.00000000    0.00000000
     atom    6 type  2   force =     0.00000000    0.00000000    0.00000000
     The SCF correction term to forces
     atom    1 type  1   force =     0.00000000    0.00000000    0.00000000
     atom    2 type  1   force =    -0.00000000   -0.00000000   -0.00000000
     atom    3 type  2   force =     0.00039459    0.00039459   -0.00000000
     atom    4 type  2   force =    -0.00039459   -0.00039459   -0.00000000
     atom    5 type  2   force =    -0.00039458    0.00039458    0.00000000
     atom    6 type  2   force =     0.00039458   -0.00039458   -0.00000000

     Total force =     0.121081     Total SCF correction =     0.001116
     Energy error            =      1.0E-01 Ry
     Gradient error          =      4.3E-02 Ry/Bohr

     number of scf cycles    =   2
     number of bfgs steps    =   1

     energy             old  =    -729.1850657915 Ry
     energy             new  =    -729.2870300198 Ry

     CASE: energy            _new < energy            _old

     new trust radius        =       0.0861175143 bohr
     new conv_thr            =       0.0000000428 Ry


ATOMIC_POSITIONS (crystal)
Ag            0.0000000000        0.2500000000        0.2500000000
Ag            0.0000000000       -0.2500000000       -0.2500000000
In           -0.5000000000        0.6473121942       -0.1473121942
In           -0.5000000000        0.3526878058        0.1473121942
In            0.2053766116        0.1473121942       -0.3526878058
In            0.7946233884       -0.1473121942       -0.6473121942



     Writing config-only to output data dir ./tmp/AgIn2_Relax.save/
     NEW-OLD atomic charge density approx. for the potential

     total cpu time spent up to now is     1348.9 secs

     Self-consistent Calculation

     iteration #  1     ecut=   100.00 Ry     beta= 0.70
     Davidson diagonalization with overlap
     c_bands:  1 eigenvalues not converged
     c_bands:  1 eigenvalues not converged
     ethr =  1.00E-06,  avg # of iterations = 13.0

     total cpu time spent up to now is     1542.1 secs

     total energy              =    -729.30063216 Ry
     estimated scf accuracy    <       0.00012302 Ry

     iteration #  2     ecut=   100.00 Ry     beta= 0.70
     Davidson diagonalization with overlap
     ethr =  1.66E-07,  avg # of iterations =  4.1

     total cpu time spent up to now is     1609.7 secs

     total energy              =    -729.30065179 Ry
     estimated scf accuracy    <       0.00002737 Ry

     iteration #  3     ecut=   100.00 Ry     beta= 0.70
     Davidson diagonalization with overlap
     ethr =  3.70E-08,  avg # of iterations =  4.9

     total cpu time spent up to now is     1674.4 secs

     total energy              =    -729.30065865 Ry
     estimated scf accuracy    <       0.00001560 Ry

     iteration #  4     ecut=   100.00 Ry     beta= 0.70
     Davidson diagonalization with overlap
     ethr =  2.11E-08,  avg # of iterations =  3.3

     total cpu time spent up to now is     1731.4 secs

     total energy              =    -729.30066223 Ry
     estimated scf accuracy    <       0.00000036 Ry

     iteration #  5     ecut=   100.00 Ry     beta= 0.70
     Davidson diagonalization with overlap
     c_bands:  1 eigenvalues not converged
     c_bands:  2 eigenvalues not converged
     ethr =  4.89E-10,  avg # of iterations =  8.2

     total cpu time spent up to now is     1820.4 secs

     total energy              =    -729.30083391 Ry
     estimated scf accuracy    <       0.00001026 Ry

     iteration #  6     ecut=   100.00 Ry     beta= 0.70
     Davidson diagonalization with overlap
     ethr =  4.89E-10,  avg # of iterations =  2.3

     total cpu time spent up to now is     1869.6 secs

     total energy              =    -729.30083233 Ry
     estimated scf accuracy    <       0.00000831 Ry

     iteration #  7     ecut=   100.00 Ry     beta= 0.70
     Davidson diagonalization with overlap
     ethr =  4.89E-10,  avg # of iterations =  7.5

     total cpu time spent up to now is     1957.5 secs

     total energy              =    -729.30083133 Ry
     estimated scf accuracy    <       0.00000351 Ry

     iteration #  8     ecut=   100.00 Ry     beta= 0.70
     Davidson diagonalization with overlap
     ethr =  4.89E-10,  avg # of iterations =  7.6

     total cpu time spent up to now is     2035.0 secs

     total energy              =    -729.30083146 Ry
     estimated scf accuracy    <       0.00000032 Ry

     iteration #  9     ecut=   100.00 Ry     beta= 0.70
     Davidson diagonalization with overlap
     ethr =  4.30E-10,  avg # of iterations =  4.8

     total cpu time spent up to now is     2096.2 secs

     End of self-consistent calculation

     Number of k-points >= 100: set verbosity='high' to print the bands.

     highest occupied level (ev):    18.9658

!    total energy              =    -729.30083153 Ry
     estimated scf accuracy    <          9.9E-10 Ry

     The total energy is the sum of the following terms:
     one-electron contribution =     -85.32666143 Ry
     hartree contribution      =     124.41948558 Ry
     xc contribution           =    -230.57526323 Ry
     ewald contribution        =    -537.81839245 Ry

     convergence has been achieved in   9 iterations

     Forces acting on atoms (cartesian axes, Ry/au):

     atom    1 type  1   force =    -0.00000000    0.00000000    0.00000000
     atom    2 type  1   force =     0.00000000    0.00000000   -0.00000000
     atom    3 type  2   force =     0.01545306    0.01545306    0.00000000
     atom    4 type  2   force =    -0.01545306   -0.01545306   -0.00000000
     atom    5 type  2   force =    -0.01545306    0.01545306    0.00000000
     atom    6 type  2   force =     0.01545306   -0.01545306    0.00000000
     The non-local contrib.  to forces
     atom    1 type  1   force =     0.00000000    0.00000000    0.00000000
     atom    2 type  1   force =     0.00000000    0.00000000    0.00000000
     atom    3 type  2   force =     0.08888368    0.08888368    0.00000000
     atom    4 type  2   force =    -0.08888368   -0.08888368    0.00000000
     atom    5 type  2   force =    -0.08888368    0.08888368   -0.00000000
     atom    6 type  2   force =     0.08888368   -0.08888368   -0.00000000
     The ionic contribution  to forces
     atom    1 type  1   force =    -0.00002298   -0.00002298    0.00000000
     atom    2 type  1   force =     0.00002298    0.00002298   -0.00000000
     atom    3 type  2   force =    -0.21229649   -0.21229649   -0.00000000
     atom    4 type  2   force =     0.21229649    0.21229649   -0.00000000
     atom    5 type  2   force =     0.21219650   -0.21219650   -0.00004768
     atom    6 type  2   force =    -0.21219650    0.21219650    0.00004768
     The local contribution  to forces
     atom    1 type  1   force =     0.00000000    0.00000000   -0.00000000
     atom    2 type  1   force =    -0.00000000   -0.00000000    0.00000000
     atom    3 type  2   force =     0.14411811    0.14411811    0.00000000
     atom    4 type  2   force =    -0.14411811   -0.14411811   -0.00000000
     atom    5 type  2   force =    -0.14453237    0.14453237   -0.00032888
     atom    6 type  2   force =     0.14453237   -0.14453237    0.00032888
     The core correction contribution to forces
     atom    1 type  1   force =    -0.00000000   -0.00000000   -0.00000000
     atom    2 type  1   force =     0.00000000    0.00000000    0.00000000
     atom    3 type  2   force =    -0.00548396   -0.00548396    0.00000000
     atom    4 type  2   force =     0.00548396    0.00548396    0.00000000
     atom    5 type  2   force =     0.00544506   -0.00544506   -0.00003060
     atom    6 type  2   force =    -0.00544506    0.00544506    0.00003060
     The Hubbard contrib.    to forces
     atom    1 type  1   force =     0.00000000    0.00000000    0.00000000
     atom    2 type  1   force =     0.00000000    0.00000000    0.00000000
     atom    3 type  2   force =     0.00000000    0.00000000    0.00000000
     atom    4 type  2   force =     0.00000000    0.00000000    0.00000000
     atom    5 type  2   force =     0.00000000    0.00000000    0.00000000
     atom    6 type  2   force =     0.00000000    0.00000000    0.00000000
     The SCF correction term to forces
     atom    1 type  1   force =    -0.00000000   -0.00000000   -0.00000000
     atom    2 type  1   force =     0.00000000    0.00000000    0.00000000
     atom    3 type  2   force =    -0.00004486   -0.00004486    0.00000000
     atom    4 type  2   force =     0.00004486    0.00004486   -0.00000000
     atom    5 type  2   force =     0.00004486   -0.00004486   -0.00000000
     atom    6 type  2   force =    -0.00004486    0.00004486    0.00000000

     Total force =     0.043708     Total SCF correction =     0.000127
     Energy error            =      1.4E-02 Ry
     Gradient error          =      1.5E-02 Ry/Bohr

     number of scf cycles    =   3
     number of bfgs steps    =   2

     energy             old  =    -729.2870300198 Ry
     energy             new  =    -729.3008315282 Ry

     CASE: energy            _new < energy            _old

     new trust radius        =       0.0486472809 bohr
     new conv_thr            =       0.0000000155 Ry


ATOMIC_POSITIONS (crystal)
Ag            0.0000000000        0.2500000000        0.2500000000
Ag            0.0000000000       -0.2500000000       -0.2500000000
In           -0.5000000000        0.6501496065       -0.1501496065
In           -0.5000000000        0.3498503935        0.1501496065
In            0.1997017871        0.1501496065       -0.3498503935
In            0.8002982129       -0.1501496065       -0.6501496065



     Writing config-only to output data dir ./tmp/AgIn2_Relax.save/
     NEW-OLD atomic charge density approx. for the potential

     total cpu time spent up to now is     2109.6 secs

     Self-consistent Calculation

     iteration #  1     ecut=   100.00 Ry     beta= 0.70
     Davidson diagonalization with overlap
     ethr =  1.00E-06,  avg # of iterations = 10.7

     Threshold (ethr) on eigenvalues was too large:
     Diagonalizing with lowered threshold

     Davidson diagonalization with overlap
     ethr =  5.07E-08,  avg # of iterations =  6.2

     total cpu time spent up to now is     2341.8 secs

     total energy              =    -729.30322003 Ry
     estimated scf accuracy    <       0.00003819 Ry

     iteration #  2     ecut=   100.00 Ry     beta= 0.70
     Davidson diagonalization with overlap
     ethr =  5.16E-08,  avg # of iterations =  2.3

     total cpu time spent up to now is     2404.0 secs

     total energy              =    -729.30322381 Ry
     estimated scf accuracy    <       0.00000566 Ry

     iteration #  3     ecut=   100.00 Ry     beta= 0.70
     Davidson diagonalization with overlap
     ethr =  7.65E-09,  avg # of iterations =  4.7

     total cpu time spent up to now is     2473.1 secs

     total energy              =    -729.30322492 Ry
     estimated scf accuracy    <       0.00000403 Ry

     iteration #  4     ecut=   100.00 Ry     beta= 0.70
     Davidson diagonalization with overlap
     ethr =  5.44E-09,  avg # of iterations =  3.3

     total cpu time spent up to now is     2528.9 secs

     total energy              =    -729.30322585 Ry
     estimated scf accuracy    <       0.00000009 Ry

     iteration #  5     ecut=   100.00 Ry     beta= 0.70
     Davidson diagonalization with overlap
     c_bands:  1 eigenvalues not converged
     c_bands:  1 eigenvalues not converged
     ethr =  1.25E-10,  avg # of iterations =  7.3

     total cpu time spent up to now is     2612.6 secs

     total energy              =    -729.30331634 Ry
     estimated scf accuracy    <       0.00000318 Ry

     iteration #  6     ecut=   100.00 Ry     beta= 0.70
     Davidson diagonalization with overlap
     ethr =  1.25E-10,  avg # of iterations =  1.1

     total cpu time spent up to now is     2657.8 secs

     total energy              =    -729.30331587 Ry
     estimated scf accuracy    <       0.00000295 Ry

     iteration #  7     ecut=   100.00 Ry     beta= 0.70
     Davidson diagonalization with overlap
     ethr =  1.25E-10,  avg # of iterations =  4.5

     total cpu time spent up to now is     2724.8 secs

     total energy              =    -729.30331537 Ry
     estimated scf accuracy    <       0.00000149 Ry

     iteration #  8     ecut=   100.00 Ry     beta= 0.70
     Davidson diagonalization with overlap
     ethr =  1.25E-10,  avg # of iterations =  6.8

     total cpu time spent up to now is     2806.5 secs

     total energy              =    -729.30331550 Ry
     estimated scf accuracy    <       0.00000002 Ry

     iteration #  9     ecut=   100.00 Ry     beta= 0.70
     Davidson diagonalization with overlap
     ethr =  2.76E-11,  avg # of iterations =  5.2

     total cpu time spent up to now is     2878.3 secs

     total energy              =    -729.30331550 Ry
     estimated scf accuracy    <       0.00000003 Ry

     iteration # 10     ecut=   100.00 Ry     beta= 0.70
     Davidson diagonalization with overlap
     ethr =  2.76E-11,  avg # of iterations =  3.6

     total cpu time spent up to now is     2942.8 secs

     End of self-consistent calculation

     Number of k-points >= 100: set verbosity='high' to print the bands.

     highest occupied level (ev):    19.0683

!    total energy              =    -729.30331550 Ry
     estimated scf accuracy    <          1.4E-09 Ry

     The total energy is the sum of the following terms:
     one-electron contribution =     -85.59181083 Ry
     hartree contribution      =     124.55382752 Ry
     xc contribution           =    -230.57644163 Ry
     ewald contribution        =    -537.68889056 Ry

     convergence has been achieved in  10 iterations

     Forces acting on atoms (cartesian axes, Ry/au):

     atom    1 type  1   force =    -0.00000000    0.00000000    0.00000000
     atom    2 type  1   force =     0.00000000    0.00000000   -0.00000000
     atom    3 type  2   force =     0.00248000    0.00248000   -0.00000000
     atom    4 type  2   force =    -0.00248000   -0.00248000   -0.00000000
     atom    5 type  2   force =    -0.00248000    0.00248000    0.00000000
     atom    6 type  2   force =     0.00248000   -0.00248000   -0.00000000
     The non-local contrib.  to forces
     atom    1 type  1   force =     0.00000000   -0.00000000   -0.00000000
     atom    2 type  1   force =     0.00000000   -0.00000000   -0.00000000
     atom    3 type  2   force =     0.08154021    0.08154021    0.00000000
     atom    4 type  2   force =    -0.08154021   -0.08154021    0.00000000
     atom    5 type  2   force =    -0.08154021    0.08154021    0.00000000
     atom    6 type  2   force =     0.08154021   -0.08154021    0.00000000
     The ionic contribution  to forces
     atom    1 type  1   force =    -0.00002346   -0.00002346   -0.00000000
     atom    2 type  1   force =     0.00002346    0.00002346   -0.00000000
     atom    3 type  2   force =    -0.72337007   -0.72337007    0.00000000
     atom    4 type  2   force =     0.72337007    0.72337007   -0.00000000
     atom    5 type  2   force =     0.72327445   -0.72327445   -0.00004950
     atom    6 type  2   force =    -0.72327445    0.72327445    0.00004950
     The local contribution  to forces
     atom    1 type  1   force =    -0.00000000   -0.00000000    0.00000000
     atom    2 type  1   force =     0.00000000    0.00000000   -0.00000000
     atom    3 type  2   force =     0.64788675    0.64788675    0.00000000
     atom    4 type  2   force =    -0.64788675   -0.64788675   -0.00000000
     atom    5 type  2   force =    -0.64830356    0.64830356   -0.00032868
     atom    6 type  2   force =     0.64830356   -0.64830356    0.00032868
     The core correction contribution to forces
     atom    1 type  1   force =    -0.00000000   -0.00000000   -0.00000000
     atom    2 type  1   force =     0.00000000    0.00000000    0.00000000
     atom    3 type  2   force =    -0.00380899   -0.00380899   -0.00000000
     atom    4 type  2   force =     0.00380899    0.00380899    0.00000000
     atom    5 type  2   force =     0.00377009   -0.00377009   -0.00003060
     atom    6 type  2   force =    -0.00377009    0.00377009    0.00003060
     The Hubbard contrib.    to forces
     atom    1 type  1   force =     0.00000000    0.00000000    0.00000000
     atom    2 type  1   force =     0.00000000    0.00000000    0.00000000
     atom    3 type  2   force =     0.00000000    0.00000000    0.00000000
     atom    4 type  2   force =     0.00000000    0.00000000    0.00000000
     atom    5 type  2   force =     0.00000000    0.00000000    0.00000000
     atom    6 type  2   force =     0.00000000    0.00000000    0.00000000
     The SCF correction term to forces
     atom    1 type  1   force =    -0.00000000   -0.00000000    0.00000000
     atom    2 type  1   force =     0.00000000    0.00000000   -0.00000000
     atom    3 type  2   force =    -0.00004357   -0.00004357    0.00000000
     atom    4 type  2   force =     0.00004357    0.00004357   -0.00000000
     atom    5 type  2   force =     0.00004357   -0.00004357   -0.00000000
     atom    6 type  2   force =    -0.00004357    0.00004357    0.00000000

     Total force =     0.007014     Total SCF correction =     0.000123
     Energy error            =      2.5E-03 Ry
     Gradient error          =      2.5E-03 Ry/Bohr

     number of scf cycles    =   4
     number of bfgs steps    =   3

     energy             old  =    -729.3008315282 Ry
     energy             new  =    -729.3033155029 Ry

     CASE: energy            _new < energy            _old

     new trust radius        =       0.0092996740 bohr
     new conv_thr            =       0.0000000100 Ry


ATOMIC_POSITIONS (crystal)
Ag            0.0000000000        0.2500000000        0.2500000000
Ag            0.0000000000       -0.2500000000       -0.2500000000
In           -0.5000000000        0.6506920213       -0.1506920213
In           -0.5000000000        0.3493079787        0.1506920213
In            0.1986169573        0.1506920213       -0.3493079787
In            0.8013830427       -0.1506920213       -0.6506920213



     Writing config-only to output data dir ./tmp/AgIn2_Relax.save/
     NEW-OLD atomic charge density approx. for the potential

     total cpu time spent up to now is     2956.2 secs

     Self-consistent Calculation

     iteration #  1     ecut=   100.00 Ry     beta= 0.70
     Davidson diagonalization with overlap
     ethr =  1.00E-06,  avg # of iterations =  6.3

     Threshold (ethr) on eigenvalues was too large:
     Diagonalizing with lowered threshold

     Davidson diagonalization with overlap
     ethr =  6.37E-09,  avg # of iterations =  9.0

     total cpu time spent up to now is     3163.6 secs

     total energy              =    -729.30338556 Ry
     estimated scf accuracy    <       0.00000135 Ry

     iteration #  2     ecut=   100.00 Ry     beta= 0.70
     Davidson diagonalization with overlap
     ethr =  1.82E-09,  avg # of iterations =  3.0

     total cpu time spent up to now is     3226.2 secs

     total energy              =    -729.30338570 Ry
     estimated scf accuracy    <       0.00000017 Ry

     iteration #  3     ecut=   100.00 Ry     beta= 0.70
     Davidson diagonalization with overlap
     ethr =  2.35E-10,  avg # of iterations =  5.1

     total cpu time spent up to now is     3300.9 secs

     total energy              =    -729.30338573 Ry
     estimated scf accuracy    <       0.00000013 Ry

     iteration #  4     ecut=   100.00 Ry     beta= 0.70
     Davidson diagonalization with overlap
     ethr =  1.75E-10,  avg # of iterations =  3.2

     total cpu time spent up to now is     3357.6 secs

     End of self-consistent calculation

     Number of k-points >= 100: set verbosity='high' to print the bands.

     highest occupied level (ev):    19.0883

!    total energy              =    -729.30338576 Ry
     estimated scf accuracy    <          3.3E-09 Ry

     The total energy is the sum of the following terms:
     one-electron contribution =     -85.67146303 Ry
     hartree contribution      =     124.59348689 Ry
     xc contribution           =    -230.57704557 Ry
     ewald contribution        =    -537.64836405 Ry

     convergence has been achieved in   4 iterations

     Forces acting on atoms (cartesian axes, Ry/au):

     atom    1 type  1   force =    -0.00000000    0.00000000    0.00000000
     atom    2 type  1   force =    -0.00000000    0.00000000    0.00000000
     atom    3 type  2   force =     0.00012151    0.00012151    0.00000000
     atom    4 type  2   force =    -0.00012151   -0.00012151    0.00000000
     atom    5 type  2   force =    -0.00012151    0.00012151   -0.00000000
     atom    6 type  2   force =     0.00012151   -0.00012151   -0.00000000
     The non-local contrib.  to forces
     atom    1 type  1   force =     0.00000000   -0.00000000   -0.00000000
     atom    2 type  1   force =     0.00000000   -0.00000000   -0.00000000
     atom    3 type  2   force =     0.08045988    0.08045988   -0.00000000
     atom    4 type  2   force =    -0.08045988   -0.08045988   -0.00000000
     atom    5 type  2   force =    -0.08045988    0.08045988    0.00000000
     atom    6 type  2   force =     0.08045988   -0.08045988   -0.00000000
     The ionic contribution  to forces
     atom    1 type  1   force =    -0.00002355   -0.00002355   -0.00000000
     atom    2 type  1   force =     0.00002355    0.00002355    0.00000000
     atom    3 type  2   force =    -0.81725216   -0.81725216   -0.00000000
     atom    4 type  2   force =     0.81725216    0.81725216    0.00000000
     atom    5 type  2   force =     0.81715737   -0.81715737   -0.00004986
     atom    6 type  2   force =    -0.81715737    0.81715737    0.00004986
     The local contribution  to forces
     atom    1 type  1   force =    -0.00000000   -0.00000000   -0.00000000
     atom    2 type  1   force =     0.00000000    0.00000000    0.00000000
     atom    3 type  2   force =     0.74013514    0.74013514    0.00000000
     atom    4 type  2   force =    -0.74013514   -0.74013514   -0.00000000
     atom    5 type  2   force =    -0.74055243    0.74055243   -0.00032864
     atom    6 type  2   force =     0.74055243   -0.74055243    0.00032864
     The core correction contribution to forces
     atom    1 type  1   force =    -0.00000000   -0.00000000   -0.00000000
     atom    2 type  1   force =     0.00000000    0.00000000    0.00000000
     atom    3 type  2   force =    -0.00351839   -0.00351839    0.00000000
     atom    4 type  2   force =     0.00351839    0.00351839    0.00000000
     atom    5 type  2   force =     0.00347948   -0.00347948   -0.00003060
     atom    6 type  2   force =    -0.00347948    0.00347948    0.00003060
     The Hubbard contrib.    to forces
     atom    1 type  1   force =     0.00000000    0.00000000    0.00000000
     atom    2 type  1   force =     0.00000000    0.00000000    0.00000000
     atom    3 type  2   force =     0.00000000    0.00000000    0.00000000
     atom    4 type  2   force =     0.00000000    0.00000000    0.00000000
     atom    5 type  2   force =     0.00000000    0.00000000    0.00000000
     atom    6 type  2   force =     0.00000000    0.00000000    0.00000000
     The SCF correction term to forces
     atom    1 type  1   force =     0.00000000    0.00000000    0.00000000
     atom    2 type  1   force =    -0.00000000   -0.00000000    0.00000000
     atom    3 type  2   force =     0.00002155    0.00002155   -0.00000000
     atom    4 type  2   force =    -0.00002155   -0.00002155   -0.00000000
     atom    5 type  2   force =    -0.00002155    0.00002155    0.00000000
     atom    6 type  2   force =     0.00002155   -0.00002155   -0.00000000

     Total force =     0.000344     Total SCF correction =     0.000061
     SCF correction compared to forces is large: reduce conv_thr to get better values
     Energy error            =      7.0E-05 Ry
     Gradient error          =      1.2E-04 Ry/Bohr

     bfgs converged in   5 scf cycles and   4 bfgs steps
     (criteria: energy <  1.0E-04 Ry, force <  1.0E-02 Ry/Bohr)

     End of BFGS Geometry Optimization

     Final energy             =    -729.3033857582 Ry

     File ./tmp/AgIn2_Relax.bfgs deleted, as requested
Begin final coordinates

ATOMIC_POSITIONS (crystal)
Ag            0.0000000000        0.2500000000        0.2500000000
Ag            0.0000000000       -0.2500000000       -0.2500000000
In           -0.5000000000        0.6506920213       -0.1506920213
In           -0.5000000000        0.3493079787        0.1506920213
In            0.1986169573        0.1506920213       -0.3493079787
In            0.8013830427       -0.1506920213       -0.6506920213
End final coordinates



     Writing all to output data dir ./tmp/AgIn2_Relax.save/

     init_run     :      8.45s CPU     26.28s WALL (       1 calls)
     electrons    :   1025.29s CPU   3272.58s WALL (       5 calls)
     update_pot   :      1.89s CPU      5.57s WALL (       4 calls)
     forces       :     20.89s CPU     61.72s WALL (       5 calls)

     Called by init_run:
     wfcinit      :      7.24s CPU     22.69s WALL (       1 calls)
     potinit      :      0.17s CPU      0.49s WALL (       1 calls)
     hinit0       :      0.53s CPU      1.68s WALL (       1 calls)

     Called by electrons:
     c_bands      :    930.34s CPU   2981.01s WALL (      41 calls)
     sum_band     :     91.84s CPU    281.55s WALL (      41 calls)
     v_of_rho     :      0.84s CPU      2.50s WALL (      43 calls)
     newd         :      2.62s CPU      7.71s WALL (      43 calls)
     mix_rho      :      0.10s CPU      0.42s WALL (      41 calls)

     Called by c_bands:
     init_us_2    :      5.99s CPU      7.95s WALL (    8976 calls)
     init_us_2:cp :      5.94s CPU      7.91s WALL (    8976 calls)
     cegterg      :    909.22s CPU   2912.47s WALL (    4182 calls)

     Called by *egterg:
     cdiaghg      :     75.45s CPU    269.19s WALL (   25735 calls)
     h_psi        :    515.11s CPU   1667.27s WALL (   26551 calls)
     s_psi        :     47.42s CPU     73.14s WALL (   26551 calls)
     g_psi        :      1.17s CPU      2.60s WALL (   22267 calls)

     Called by h_psi:
     h_psi:calbec :    104.26s CPU    398.62s WALL (   26551 calls)
     vloc_psi     :    360.30s CPU   1203.20s WALL (   26551 calls)
     add_vuspsi   :     48.27s CPU     62.37s WALL (   26551 calls)

     General routines
     calbec       :    144.90s CPU    514.61s WALL (   32773 calls)
     fft          :      0.93s CPU      4.61s WALL (     535 calls)
     ffts         :      0.06s CPU      0.54s WALL (      41 calls)
     fftw         :    360.63s CPU   1330.84s WALL ( 1228246 calls)

     Parallel routines

     PWSCF        :  17m39.51s CPU  56m24.42s WALL


   This run was terminated on:   7: 5:42   8May2023            

=------------------------------------------------------------------------------=
   JOB DONE.
=------------------------------------------------------------------------------=
Note: The following floating-point exceptions are signalling: IEEE_INVALID_FLAG
