
     Program PWSCF v.7.2 starts on  8May2023 at 10:10: 7 

     This program is part of the open-source Quantum ESPRESSO suite
     for quantum simulation of materials; please cite
         "P. Giannozzi et al., J. Phys.:Condens. Matter 21 395502 (2009);
         "P. Giannozzi et al., J. Phys.:Condens. Matter 29 465901 (2017);
         "P. Giannozzi et al., J. Chem. Phys. 152 154105 (2020);
          URL http://www.quantum-espresso.org", 
     in publications or presentations arising from this work. More details at
     http://www.quantum-espresso.org/quote

     Parallel version (MPI), running on    20 processors

     MPI processes distributed on     1 nodes
     1612 MiB available memory on the printing compute node when the environment starts

     Reading input from ./DFTData/AgIn2/relax/Relax_V720.00_0.in
Warning: card &CELL ignored
Warning: card / ignored

     Current dimensions of program PWSCF are:
     Max number of different atomic species (ntypx) = 10
     Max number of k-points (npk) =  40000
     Max angular momentum in pseudopotentials (lmaxx) =  4
     file In.pbe-dn-rrkjus_psl.1.0.0.UPF: wavefunction(s)  5S 4D renormalized

     R & G space division:  proc/nbgrp/npool/nimage =      20
     Subspace diagonalization in iterative solution of the eigenvalue problem:
     a serial algorithm will be used


     Parallelization info
     --------------------
     sticks:   dense  smooth     PW     G-vecs:    dense   smooth      PW
     Min         150     150     44                 4863     4863     789
     Max         151     151     45                 4865     4865     791
     Sum        3003    3003    891                97263    97263   15809

     Using Slab Decomposition



     bravais-lattice index     =            7
     lattice parameter (alat)  =      12.0928  a.u.
     unit-cell volume          =     720.0000 (a.u.)^3
     number of atoms/cell      =            6
     number of atomic types    =            2
     number of electrons       =        74.00
     number of Kohn-Sham states=           37
     kinetic-energy cutoff     =     100.0000  Ry
     charge density cutoff     =     400.0000  Ry
     scf convergence threshold =      1.0E-06
     mixing beta               =       0.7000
     number of iterations used =            8  plain     mixing
     energy convergence thresh.=      1.0E-04
     force convergence thresh. =      1.0E-02
     Exchange-correlation= PBE
                           (   1   4   3   4   0   0   0)
     nstep                     =           50


     celldm(1)=  12.092847  celldm(2)=   0.000000  celldm(3)=   0.814286
     celldm(4)=   0.000000  celldm(5)=   0.000000  celldm(6)=   0.000000

     crystal axes: (cart. coord. in units of alat)
               a(1) = (   0.500000  -0.500000   0.407143 )  
               a(2) = (   0.500000   0.500000   0.407143 )  
               a(3) = (  -0.500000  -0.500000   0.407143 )  

     reciprocal axes: (cart. coord. in units 2 pi/alat)
               b(1) = (  1.000000 -1.000000  0.000000 )  
               b(2) = (  0.000000  1.000000  1.228070 )  
               b(3) = ( -1.000000  0.000000  1.228070 )  


     PseudoPot. # 1 for Ag read from file:
     ./pseudos/Ag.pbe-n-rrkjus_psl.1.0.0.UPF
     MD5 check sum: d841cbfac2b0861aec33b46768a516bf
     Pseudo is Ultrasoft + core correction, Zval = 11.0
     Generated using &quot;atomic&quot; code by A. Dal Corso  v.6.2.2
     Using radial grid of 1237 points,  6 beta functions with: 
                l(1) =   0
                l(2) =   0
                l(3) =   1
                l(4) =   1
                l(5) =   2
                l(6) =   2
     Q(r) pseudized with 0 coefficients 


     PseudoPot. # 2 for In read from file:
     ./pseudos/In.pbe-dn-rrkjus_psl.1.0.0.UPF
     MD5 check sum: 7267d4f9f57825930b619e54710f1f3b
     Pseudo is Ultrasoft + core correction, Zval = 13.0
     Generated using &quot;atomic&quot; code by A. Dal Corso  v.6.3
     Using radial grid of 1241 points,  6 beta functions with: 
                l(1) =   0
                l(2) =   0
                l(3) =   1
                l(4) =   1
                l(5) =   2
                l(6) =   2
     Q(r) pseudized with 0 coefficients 


     atomic species   valence    mass     pseudopotential
        Ag            11.00   107.86820     Ag( 1.00)
        In            13.00   114.81800     In( 1.00)

     16 Sym. Ops., with inversion, found ( 8 have fractional translation)



   Cartesian axes

     site n.     atom                  positions (alat units)
         1           Ag  tau(   1) = (   0.0000000   0.0000000   0.2035714  )
         2           Ag  tau(   2) = (   0.0000000   0.0000000  -0.2035714  )
         3           In  tau(   3) = (   0.1506920   0.6506920   0.0000000  )
         4           In  tau(   4) = (  -0.1506920   0.3493080   0.0000000  )
         5           In  tau(   5) = (   0.3493085   0.1506915   0.0000004  )
         6           In  tau(   6) = (   0.6506915  -0.1506915  -0.0000004  )

     number of k points=   102

     Number of k-points >= 100: set verbosity='high' to print them.

     Dense  grid:    97263 G-vectors     FFT dimensions: (  64,  64,  64)

     Estimated max dynamical RAM per process >      57.41 MB

     Estimated total dynamical RAM >       1.12 GB

     Initial potential from superposition of free atoms

     starting charge      73.9843, renormalised to      74.0000
     Starting wfcs are   54 randomized atomic wfcs

     total cpu time spent up to now is       27.5 secs

     Self-consistent Calculation

     iteration #  1     ecut=   100.00 Ry     beta= 0.70
     Davidson diagonalization with overlap
     ethr =  1.00E-02,  avg # of iterations =  2.0

     Threshold (ethr) on eigenvalues was too large:
     Diagonalizing with lowered threshold

     Davidson diagonalization with overlap
     ethr =  6.62E-05,  avg # of iterations =  6.4

     total cpu time spent up to now is      178.6 secs

     total energy              =    -729.33318207 Ry
     estimated scf accuracy    <       0.08457899 Ry

     iteration #  2     ecut=   100.00 Ry     beta= 0.70
     Davidson diagonalization with overlap
     ethr =  1.14E-04,  avg # of iterations =  2.2

     total cpu time spent up to now is      244.7 secs

     total energy              =    -729.35009359 Ry
     estimated scf accuracy    <       0.01959624 Ry

     iteration #  3     ecut=   100.00 Ry     beta= 0.70
     Davidson diagonalization with overlap
     ethr =  2.65E-05,  avg # of iterations =  4.4

     total cpu time spent up to now is      304.8 secs

     total energy              =    -729.35467793 Ry
     estimated scf accuracy    <       0.00354959 Ry

     iteration #  4     ecut=   100.00 Ry     beta= 0.70
     Davidson diagonalization with overlap
     ethr =  4.80E-06,  avg # of iterations =  4.5

     total cpu time spent up to now is      364.6 secs

     total energy              =    -729.35563574 Ry
     estimated scf accuracy    <       0.00013465 Ry

     iteration #  5     ecut=   100.00 Ry     beta= 0.70
     Davidson diagonalization with overlap
     ethr =  1.82E-07,  avg # of iterations =  6.2

     total cpu time spent up to now is      439.1 secs

     total energy              =    -729.35582666 Ry
     estimated scf accuracy    <       0.00002424 Ry

     iteration #  6     ecut=   100.00 Ry     beta= 0.70
     Davidson diagonalization with overlap
     ethr =  3.28E-08,  avg # of iterations =  5.2

     total cpu time spent up to now is      501.2 secs

     End of self-consistent calculation

     Number of k-points >= 100: set verbosity='high' to print the bands.

     highest occupied level (ev):    18.2237

!    total energy              =    -729.35583376 Ry
     estimated scf accuracy    <       0.00000091 Ry

     The total energy is the sum of the following terms:
     one-electron contribution =     -93.12593642 Ry
     hartree contribution      =     126.90159746 Ry
     xc contribution           =    -230.44339430 Ry
     ewald contribution        =    -532.68810049 Ry

     convergence has been achieved in   6 iterations

     Forces acting on atoms (cartesian axes, Ry/au):

     atom    1 type  1   force =    -0.00000000    0.00000000    0.00000000
     atom    2 type  1   force =     0.00000000    0.00000000   -0.00000000
     atom    3 type  2   force =     0.00310318    0.00310318    0.00000000
     atom    4 type  2   force =    -0.00310318   -0.00310318    0.00000000
     atom    5 type  2   force =    -0.00310318    0.00310318    0.00000000
     atom    6 type  2   force =     0.00310318   -0.00310318    0.00000000
     The non-local contrib.  to forces
     atom    1 type  1   force =    -0.00000000    0.00000000    0.00000000
     atom    2 type  1   force =     0.00000000   -0.00000000   -0.00000000
     atom    3 type  2   force =     0.09009004    0.09009004    0.00000000
     atom    4 type  2   force =    -0.09009004   -0.09009004    0.00000000
     atom    5 type  2   force =    -0.09009004    0.09009004   -0.00000000
     atom    6 type  2   force =     0.09009004   -0.09009004    0.00000000
     The ionic contribution  to forces
     atom    1 type  1   force =    -0.00002486   -0.00002486   -0.00000000
     atom    2 type  1   force =     0.00002486    0.00002486    0.00000000
     atom    3 type  2   force =    -0.72673899   -0.72673899   -0.00000000
     atom    4 type  2   force =     0.72673899    0.72673899   -0.00000000
     atom    5 type  2   force =     0.72664379   -0.72664379   -0.00004902
     atom    6 type  2   force =    -0.72664379    0.72664379    0.00004902
     The local contribution  to forces
     atom    1 type  1   force =    -0.00000000   -0.00000000    0.00000000
     atom    2 type  1   force =     0.00000000    0.00000000    0.00000000
     atom    3 type  2   force =     0.64196245    0.64196245    0.00000000
     atom    4 type  2   force =    -0.64196245   -0.64196245   -0.00000000
     atom    5 type  2   force =    -0.64237961    0.64237961   -0.00034192
     atom    6 type  2   force =     0.64237961   -0.64237961    0.00034192
     The core correction contribution to forces
     atom    1 type  1   force =    -0.00000000   -0.00000000    0.00000000
     atom    2 type  1   force =     0.00000000    0.00000000   -0.00000000
     atom    3 type  2   force =    -0.00401287   -0.00401287    0.00000000
     atom    4 type  2   force =     0.00401287    0.00401287    0.00000000
     atom    5 type  2   force =     0.00397407   -0.00397407   -0.00003163
     atom    6 type  2   force =    -0.00397407    0.00397407    0.00003163
     The Hubbard contrib.    to forces
     atom    1 type  1   force =     0.00000000    0.00000000    0.00000000
     atom    2 type  1   force =     0.00000000    0.00000000    0.00000000
     atom    3 type  2   force =     0.00000000    0.00000000    0.00000000
     atom    4 type  2   force =     0.00000000    0.00000000    0.00000000
     atom    5 type  2   force =     0.00000000    0.00000000    0.00000000
     atom    6 type  2   force =     0.00000000    0.00000000    0.00000000
     The SCF correction term to forces
     atom    1 type  1   force =     0.00000008    0.00000008    0.00000000
     atom    2 type  1   force =    -0.00000008   -0.00000008    0.00000000
     atom    3 type  2   force =     0.00152754    0.00152754    0.00000000
     atom    4 type  2   force =    -0.00152754   -0.00152754    0.00000000
     atom    5 type  2   force =    -0.00152639    0.00152639    0.00000084
     atom    6 type  2   force =     0.00152639   -0.00152639   -0.00000084

     Total force =     0.008777     Total SCF correction =     0.004319
     SCF correction compared to forces is large: reduce conv_thr to get better values

     BFGS Geometry Optimization
     Energy error            =      0.0E+00 Ry
     Gradient error          =      3.1E-03 Ry/Bohr

     bfgs converged in   1 scf cycles and   0 bfgs steps
     (criteria: energy <  1.0E-04 Ry, force <  1.0E-02 Ry/Bohr)

     End of BFGS Geometry Optimization

     Final energy             =    -729.3558337583 Ry
Begin final coordinates

ATOMIC_POSITIONS (crystal)
Ag            0.0000000000        0.2500000000        0.2500000000
Ag            0.0000000000       -0.2500000000       -0.2500000000
In           -0.5000000000        0.6506920000       -0.1506920000
In           -0.5000000000        0.3493080000        0.1506920000
In            0.1986170000        0.1506920000       -0.3493080000
In            0.8013830000       -0.1506920000       -0.6506920000
End final coordinates



     Writing all to output data dir ./tmp/AgIn2_Relax.save/

     init_run     :      8.20s CPU     25.80s WALL (       1 calls)
     electrons    :    149.34s CPU    473.75s WALL (       1 calls)
     forces       :      3.61s CPU     12.93s WALL (       1 calls)

     Called by init_run:
     wfcinit      :      7.04s CPU     22.39s WALL (       1 calls)
     potinit      :      0.17s CPU      0.54s WALL (       1 calls)
     hinit0       :      0.52s CPU      1.57s WALL (       1 calls)

     Called by electrons:
     c_bands      :    133.38s CPU    424.93s WALL (       7 calls)
     sum_band     :     15.40s CPU     47.16s WALL (       7 calls)
     v_of_rho     :      0.12s CPU      0.40s WALL (       7 calls)
     newd         :      0.47s CPU      1.35s WALL (       7 calls)
     mix_rho      :      0.02s CPU      0.05s WALL (       7 calls)

     Called by c_bands:
     init_us_2    :      0.95s CPU      1.28s WALL (    1632 calls)
     init_us_2:cp :      0.94s CPU      1.27s WALL (    1632 calls)
     cegterg      :    129.83s CPU    412.84s WALL (     714 calls)

     Called by *egterg:
     cdiaghg      :     10.83s CPU     37.73s WALL (    3762 calls)
     h_psi        :     78.57s CPU    252.11s WALL (    3966 calls)
     s_psi        :      7.60s CPU     11.61s WALL (    3966 calls)
     g_psi        :      0.16s CPU      0.30s WALL (    3150 calls)

     Called by h_psi:
     h_psi:calbec :     16.07s CPU     60.09s WALL (    3966 calls)
     vloc_psi     :     54.50s CPU    181.84s WALL (    3966 calls)
     add_vuspsi   :      7.66s CPU      9.74s WALL (    3966 calls)

     General routines
     calbec       :     22.95s CPU     81.96s WALL (    5088 calls)
     fft          :      0.24s CPU      0.99s WALL (      89 calls)
     ffts         :      0.01s CPU      0.08s WALL (       7 calls)
     fftw         :     55.25s CPU    204.09s WALL (  190342 calls)

     Parallel routines

     PWSCF        :   2m43.94s CPU   8m50.64s WALL


   This run was terminated on:  10:18:58   8May2023            

=------------------------------------------------------------------------------=
   JOB DONE.
=------------------------------------------------------------------------------=
Note: The following floating-point exceptions are signalling: IEEE_INVALID_FLAG
